; Created by cgenff_charmm2gmx.py

[ moleculetype ]
; Name			   nrexcl
JZ4				 3

[ atoms ]
;	 nr		  type	resnr residue  atom   cgnr	   charge		mass  typeB    chargeB		massB
; residue	 1 JZ4 rtp JZ4 q	qsum
     1     CG2R61      1    JZ4     C1      1     -0.114     12.011   ;
     2     CG2R61      1    JZ4     C2      2      0.028     12.011   ;
     3     CG2R61      1    JZ4     C3      3     -0.125     12.011   ;
     4     CG2R61      1    JZ4     C4      4      0.062     12.011   ;
     5     CG2R61      1    JZ4     C5      5     -0.001     12.011   ;
     6     CG2R61      1    JZ4     C6      6     -0.133     12.011   ;
     7      CG301      1    JZ4     C7      7     -0.056     12.011   ;
     8      CG321      1    JZ4     C8      8     -0.199     12.011   ;
     9      CG321      1    JZ4     C9      9     -0.168     12.011   ;
    10      CG311      1    JZ4    C10     10     -0.105     12.011   ;
    11      CG311      1    JZ4    C11     11     -0.118     12.011   ;
    12      CG331      1    JZ4    C12     12     -0.264     12.011   ;
    13      CG331      1    JZ4    C13     13     -0.271     12.011   ;
    14      CG331      1    JZ4    C14     14     -0.271     12.011   ;
    15      CG311      1    JZ4    C15     15      0.424     12.011   ;
    16     CG2DC1      1    JZ4    C16     16     -0.590     12.011   ;
    17     CG2R51      1    JZ4    C17     17     -0.274     12.011   ;
    18     NG2R51      1    JZ4    N18     18     -0.048     14.007   ;
    19      CG321      1    JZ4    C19     19      0.054     12.011   ;
    20     CG2R52      1    JZ4    C20     20      0.231     12.011   ;
    21     NG2R50      1    JZ4    N21     21     -0.610     14.007   ;
    22     NG2R51      1    JZ4    N22     22      0.103     14.007   ;
    23     CG2R61      1    JZ4    C23     23      0.189     12.011   ;
    24     CG2R61      1    JZ4    C24     24      0.031     12.011   ;
    25     CG2R61      1    JZ4    C25     25     -0.118     12.011   ;
    26     CG2R61      1    JZ4    C26     26     -0.115     12.011   ;
    27     CG2R61      1    JZ4    C27     27     -0.115     12.011   ;
    28     CG2R61      1    JZ4    C28     28     -0.115     12.011   ;
    29     CG2R61      1    JZ4    C29     29     -0.118     12.011   ;
    30     CG2R61      1    JZ4    C30     30     -0.153     12.011   ;
    31     CG2R61      1    JZ4    C31     31     -0.115     12.011   ;
    32     CG2R61      1    JZ4    C32     32     -0.115     12.011   ;
    33     CG2R61      1    JZ4    C33     33     -0.115     12.011   ;
    34     CG2R61      1    JZ4    C34     34     -0.153     12.011   ;
    35      CG331      1    JZ4    C35     35     -0.273     12.011   ;
    36      CG321      1    JZ4    C36     36     -0.177     12.011   ;
    37      CG321      1    JZ4    C37     37     -0.181     12.011   ;
    38      CG321      1    JZ4    C38     38     -0.175     12.011   ;
    39      CG321      1    JZ4    C39     39     -0.175     12.011   ;
    40      CG321      1    JZ4    C40     40     -0.108     12.011   ;
    41      HGR61      1    JZ4    H41     41      0.115      1.008   ;
    42      HGR61      1    JZ4    H42     42      0.115      1.008   ;
    43      HGR61      1    JZ4    H43     43      0.115      1.008   ;
    44       HGA2      1    JZ4    H44     44      0.090      1.008   ;
    45       HGA2      1    JZ4    H45     45      0.090      1.008   ;
    46       HGA2      1    JZ4    H46     46      0.090      1.008   ;
    47       HGA2      1    JZ4    H47     47      0.090      1.008   ;
    48       HGA3      1    JZ4    H48     48      0.090      1.008   ;
    49       HGA3      1    JZ4    H49     49      0.090      1.008   ;
    50       HGA3      1    JZ4    H50     50      0.090      1.008   ;
    51       HGA3      1    JZ4    H51     51      0.090      1.008   ;
    52       HGA3      1    JZ4    H52     52      0.090      1.008   ;
    53       HGA3      1    JZ4    H53     53      0.090      1.008   ;
    54       HGA3      1    JZ4    H54     54      0.090      1.008   ;
    55       HGA3      1    JZ4    H55     55      0.090      1.008   ;
    56       HGA3      1    JZ4    H56     56      0.090      1.008   ;
    57       HGA2      1    JZ4    H57     57      0.090      1.008   ;
    58       HGA2      1    JZ4    H58     58      0.090      1.008   ;
    59      HGR61      1    JZ4    H59     59      0.115      1.008   ;
    60      HGR61      1    JZ4    H60     60      0.115      1.008   ;
    61      HGR61      1    JZ4    H61     61      0.115      1.008   ;
    62      HGR61      1    JZ4    H62     62      0.115      1.008   ;
    63      HGR61      1    JZ4    H63     63      0.115      1.008   ;
    64      HGR61      1    JZ4    H64     64      0.115      1.008   ;
    65      HGR61      1    JZ4    H65     65      0.115      1.008   ;
    66      HGR61      1    JZ4    H66     66      0.115      1.008   ;
    67      HGR61      1    JZ4    H67     67      0.115      1.008   ;
    68      HGR61      1    JZ4    H68     68      0.115      1.008   ;
    69       HGA3      1    JZ4    H69     69      0.090      1.008   ;
    70       HGA3      1    JZ4    H70     70      0.090      1.008   ;
    71       HGA3      1    JZ4    H71     71      0.090      1.008   ;
    72       HGA2      1    JZ4    H72     72      0.090      1.008   ;
    73       HGA2      1    JZ4    H73     73      0.090      1.008   ;
    74       HGA2      1    JZ4    H74     74      0.090      1.008   ;
    75       HGA2      1    JZ4    H75     75      0.090      1.008   ;
    76       HGA2      1    JZ4    H76     76      0.090      1.008   ;
    77       HGA2      1    JZ4    H77     77      0.090      1.008   ;
    78       HGA2      1    JZ4    H78     78      0.090      1.008   ;
    79       HGA2      1    JZ4    H79     79      0.090      1.008   ;
    80       HGA2      1    JZ4    H80     80      0.090      1.008   ;
    81       HGA2      1    JZ4    H81     81      0.090      1.008   ;
    82       HGA1      1    JZ4     H1     82      0.090      1.008   ;
    83       HGA1      1    JZ4     H2     83      0.090      1.008   ;
    84       HGA1      1    JZ4     H3     84      0.090      1.008   ;
    85       HGP1      1    JZ4     H4     85      0.261      1.008   ;

[ bonds ]
;	ai	  aj funct			  c0			c1			  c2			c3
    1     6	 1 ;      CG2R61     CG2R61
    1    41	 1 ;      CG2R61      HGR61
    1     2	 1 ;      CG2R61     CG2R61
    2     3	 1 ;      CG2R61     CG2R61
    2    12	 1 ;      CG2R61      CG331
    3     4	 1 ;      CG2R61     CG2R61
    3    42	 1 ;      CG2R61      HGR61
    4     5	 1 ;      CG2R61     CG2R61
    4     7	 1 ;      CG2R61      CG301
    5    11	 1 ;      CG2R61      CG311
    5     6	 1 ;      CG2R61     CG2R61
    6    43	 1 ;      CG2R61      HGR61
    7     8	 1 ;       CG301      CG321
    7    14	 1 ;       CG301      CG331
    7    13	 1 ;       CG301      CG331
    8     9	 1 ;       CG321      CG321
    8    45	 1 ;       CG321       HGA2
    8    44	 1 ;       CG321       HGA2
    9    46	 1 ;       CG321       HGA2
    9    10	 1 ;       CG321      CG311
    9    47	 1 ;       CG321       HGA2
   10    15	 1 ;       CG311      CG311
   10    11	 1 ;       CG311      CG311
   10    82	 1 ;       CG311       HGA1
   11    19	 1 ;       CG311      CG321
   11    83	 1 ;       CG311       HGA1
   12    49	 1 ;       CG331       HGA3
   12    48	 1 ;       CG331       HGA3
   12    50	 1 ;       CG331       HGA3
   13    51	 1 ;       CG331       HGA3
   13    53	 1 ;       CG331       HGA3
   13    52	 1 ;       CG331       HGA3
   14    54	 1 ;       CG331       HGA3
   14    56	 1 ;       CG331       HGA3
   14    55	 1 ;       CG331       HGA3
   15    16	 1 ;       CG311     CG2DC1
   15    24	 1 ;       CG311     CG2R61
   15    84	 1 ;       CG311       HGA1
   16    23	 1 ;      CG2DC1     CG2R61
   16    17	 1 ;      CG2DC1     CG2R51
   17    20	 1 ;      CG2R51     CG2R52
   17    18	 1 ;      CG2R51     NG2R51
   18    22	 1 ;      NG2R51     NG2R51
   18    19	 1 ;      NG2R51      CG321
   19    57	 1 ;       CG321       HGA2
   19    58	 1 ;       CG321       HGA2
   20    40	 1 ;      CG2R52      CG321
   20    21	 1 ;      CG2R52     NG2R50
   21    22	 1 ;      NG2R50     NG2R51
   22    85	 1 ;      NG2R51       HGP1
   23    25	 1 ;      CG2R61     CG2R61
   23    29	 1 ;      CG2R61     CG2R61
   24    30	 1 ;      CG2R61     CG2R61
   24    34	 1 ;      CG2R61     CG2R61
   25    26	 1 ;      CG2R61     CG2R61
   25    59	 1 ;      CG2R61      HGR61
   26    60	 1 ;      CG2R61      HGR61
   26    27	 1 ;      CG2R61     CG2R61
   27    61	 1 ;      CG2R61      HGR61
   27    28	 1 ;      CG2R61     CG2R61
   28    62	 1 ;      CG2R61      HGR61
   28    29	 1 ;      CG2R61     CG2R61
   29    63	 1 ;      CG2R61      HGR61
   30    31	 1 ;      CG2R61     CG2R61
   30    64	 1 ;      CG2R61      HGR61
   31    65	 1 ;      CG2R61      HGR61
   31    32	 1 ;      CG2R61     CG2R61
   32    66	 1 ;      CG2R61      HGR61
   32    33	 1 ;      CG2R61     CG2R61
   33    67	 1 ;      CG2R61      HGR61
   33    34	 1 ;      CG2R61     CG2R61
   34    68	 1 ;      CG2R61      HGR61
   35    36	 1 ;       CG331      CG321
   35    69	 1 ;       CG331       HGA3
   35    70	 1 ;       CG331       HGA3
   35    71	 1 ;       CG331       HGA3
   36    37	 1 ;       CG321      CG321
   36    73	 1 ;       CG321       HGA2
   36    72	 1 ;       CG321       HGA2
   37    74	 1 ;       CG321       HGA2
   37    75	 1 ;       CG321       HGA2
   37    38	 1 ;       CG321      CG321
   38    39	 1 ;       CG321      CG321
   38    77	 1 ;       CG321       HGA2
   38    76	 1 ;       CG321       HGA2
   39    78	 1 ;       CG321       HGA2
   39    40	 1 ;       CG321      CG321
   39    79	 1 ;       CG321       HGA2
   40    80	 1 ;       CG321       HGA2
   40    81	 1 ;       CG321       HGA2

[ pairs ]
;	ai	  aj funct			  c0			c1			  c2			c3
    1     4	 1
    1    42	 1
    1    49	 1
    1    48	 1
    1    50	 1
    1    11	 1
    2     5	 1
    2    43	 1
    2     7	 1
    3     6	 1
    3    41	 1
    3    49	 1
    3    48	 1
    3    50	 1
    3    11	 1
    3     8	 1
    3    14	 1
    3    13	 1
    4    12	 1
    4    10	 1
    4    19	 1
    4    83	 1
    4    43	 1
    4     9	 1
    4    45	 1
    4    44	 1
    4    54	 1
    4    56	 1
    4    55	 1
    4    51	 1
    4    53	 1
    4    52	 1
    5    41	 1
    5    42	 1
    5     8	 1
    5    14	 1
    5    13	 1
    5     9	 1
    5    15	 1
    5    82	 1
    5    18	 1
    5    57	 1
    5    58	 1
    6    12	 1
    6     7	 1
    6    10	 1
    6    19	 1
    6    83	 1
    7    42	 1
    7    11	 1
    7    46	 1
    7    10	 1
    7    47	 1
    8    54	 1
    8    56	 1
    8    55	 1
    8    51	 1
    8    53	 1
    8    52	 1
    8    15	 1
    8    11	 1
    8    82	 1
    9    14	 1
    9    13	 1
    9    16	 1
    9    24	 1
    9    84	 1
    9    19	 1
    9    83	 1
   10    45	 1
   10    44	 1
   10    18	 1
   10    57	 1
   10    58	 1
   10    23	 1
   10    17	 1
   10    30	 1
   10    34	 1
   11    43	 1
   11    46	 1
   11    47	 1
   11    16	 1
   11    24	 1
   11    84	 1
   11    17	 1
   11    22	 1
   12    41	 1
   12    42	 1
   13    45	 1
   13    44	 1
   13    54	 1
   13    56	 1
   13    55	 1
   14    45	 1
   14    44	 1
   14    51	 1
   14    53	 1
   14    52	 1
   15    46	 1
   15    47	 1
   15    19	 1
   15    83	 1
   15    25	 1
   15    29	 1
   15    20	 1
   15    18	 1
   15    31	 1
   15    64	 1
   15    33	 1
   15    68	 1
   16    82	 1
   16    30	 1
   16    34	 1
   16    40	 1
   16    21	 1
   16    22	 1
   16    19	 1
   16    26	 1
   16    59	 1
   16    28	 1
   16    63	 1
   17    24	 1
   17    84	 1
   17    25	 1
   17    29	 1
   17    85	 1
   17    57	 1
   17    58	 1
   17    39	 1
   17    80	 1
   17    81	 1
   18    83	 1
   18    23	 1
   18    40	 1
   19    82	 1
   19    20	 1
   19    21	 1
   19    85	 1
   20    23	 1
   20    85	 1
   20    38	 1
   20    78	 1
   20    79	 1
   21    39	 1
   21    80	 1
   21    81	 1
   22    57	 1
   22    58	 1
   22    40	 1
   23    24	 1
   23    84	 1
   23    60	 1
   23    27	 1
   23    62	 1
   24    82	 1
   24    65	 1
   24    32	 1
   24    67	 1
   25    28	 1
   25    63	 1
   25    61	 1
   26    29	 1
   26    62	 1
   27    59	 1
   27    63	 1
   28    60	 1
   29    59	 1
   29    61	 1
   30    84	 1
   30    33	 1
   30    68	 1
   30    66	 1
   31    34	 1
   31    67	 1
   32    64	 1
   32    68	 1
   33    65	 1
   34    84	 1
   34    64	 1
   34    66	 1
   35    74	 1
   35    75	 1
   35    38	 1
   36    39	 1
   36    77	 1
   36    76	 1
   37    69	 1
   37    70	 1
   37    71	 1
   37    78	 1
   37    40	 1
   37    79	 1
   38    73	 1
   38    72	 1
   38    80	 1
   38    81	 1
   39    74	 1
   39    75	 1
   40    77	 1
   40    76	 1
   41    43	 1
   44    46	 1
   44    47	 1
   45    46	 1
   45    47	 1
   46    82	 1
   47    82	 1
   57    83	 1
   58    83	 1
   59    60	 1
   60    61	 1
   61    62	 1
   62    63	 1
   64    65	 1
   65    66	 1
   66    67	 1
   67    68	 1
   69    73	 1
   69    72	 1
   70    73	 1
   70    72	 1
   71    73	 1
   71    72	 1
   72    74	 1
   72    75	 1
   73    74	 1
   73    75	 1
   74    77	 1
   74    76	 1
   75    77	 1
   75    76	 1
   76    78	 1
   76    79	 1
   77    78	 1
   77    79	 1
   78    80	 1
   78    81	 1
   79    80	 1
   79    81	 1
   82    84	 1
   82    83	 1

[ angles ]
;	ai	  aj	ak funct			c0			  c1			c2			  c3
    6     1    41	5 ;     CG2R61     CG2R61      HGR61
    6     1     2	5 ;     CG2R61     CG2R61     CG2R61
   41     1     2	5 ;      HGR61     CG2R61     CG2R61
    1     2     3	5 ;     CG2R61     CG2R61     CG2R61
    1     2    12	5 ;     CG2R61     CG2R61      CG331
    3     2    12	5 ;     CG2R61     CG2R61      CG331
    2     3     4	5 ;     CG2R61     CG2R61     CG2R61
    2     3    42	5 ;     CG2R61     CG2R61      HGR61
    4     3    42	5 ;     CG2R61     CG2R61      HGR61
    3     4     5	5 ;     CG2R61     CG2R61     CG2R61
    3     4     7	5 ;     CG2R61     CG2R61      CG301
    5     4     7	5 ;     CG2R61     CG2R61      CG301
    4     5    11	5 ;     CG2R61     CG2R61      CG311
    4     5     6	5 ;     CG2R61     CG2R61     CG2R61
   11     5     6	5 ;      CG311     CG2R61     CG2R61
    1     6     5	5 ;     CG2R61     CG2R61     CG2R61
    1     6    43	5 ;     CG2R61     CG2R61      HGR61
    5     6    43	5 ;     CG2R61     CG2R61      HGR61
    4     7     8	5 ;     CG2R61      CG301      CG321
    4     7    14	5 ;     CG2R61      CG301      CG331
    4     7    13	5 ;     CG2R61      CG301      CG331
    8     7    14	5 ;      CG321      CG301      CG331
    8     7    13	5 ;      CG321      CG301      CG331
   14     7    13	5 ;      CG331      CG301      CG331
    7     8     9	5 ;      CG301      CG321      CG321
    7     8    45	5 ;      CG301      CG321       HGA2
    7     8    44	5 ;      CG301      CG321       HGA2
    9     8    45	5 ;      CG321      CG321       HGA2
    9     8    44	5 ;      CG321      CG321       HGA2
   45     8    44	5 ;       HGA2      CG321       HGA2
    8     9    46	5 ;      CG321      CG321       HGA2
    8     9    10	5 ;      CG321      CG321      CG311
    8     9    47	5 ;      CG321      CG321       HGA2
   46     9    10	5 ;       HGA2      CG321      CG311
   46     9    47	5 ;       HGA2      CG321       HGA2
   10     9    47	5 ;      CG311      CG321       HGA2
    9    10    15	5 ;      CG321      CG311      CG311
    9    10    11	5 ;      CG321      CG311      CG311
    9    10    82	5 ;      CG321      CG311       HGA1
   15    10    11	5 ;      CG311      CG311      CG311
   15    10    82	5 ;      CG311      CG311       HGA1
   11    10    82	5 ;      CG311      CG311       HGA1
    5    11    10	5 ;     CG2R61      CG311      CG311
    5    11    19	5 ;     CG2R61      CG311      CG321
    5    11    83	5 ;     CG2R61      CG311       HGA1
   10    11    19	5 ;      CG311      CG311      CG321
   10    11    83	5 ;      CG311      CG311       HGA1
   19    11    83	5 ;      CG321      CG311       HGA1
    2    12    49	5 ;     CG2R61      CG331       HGA3
    2    12    48	5 ;     CG2R61      CG331       HGA3
    2    12    50	5 ;     CG2R61      CG331       HGA3
   49    12    48	5 ;       HGA3      CG331       HGA3
   49    12    50	5 ;       HGA3      CG331       HGA3
   48    12    50	5 ;       HGA3      CG331       HGA3
    7    13    51	5 ;      CG301      CG331       HGA3
    7    13    53	5 ;      CG301      CG331       HGA3
    7    13    52	5 ;      CG301      CG331       HGA3
   51    13    53	5 ;       HGA3      CG331       HGA3
   51    13    52	5 ;       HGA3      CG331       HGA3
   53    13    52	5 ;       HGA3      CG331       HGA3
    7    14    54	5 ;      CG301      CG331       HGA3
    7    14    56	5 ;      CG301      CG331       HGA3
    7    14    55	5 ;      CG301      CG331       HGA3
   54    14    56	5 ;       HGA3      CG331       HGA3
   54    14    55	5 ;       HGA3      CG331       HGA3
   56    14    55	5 ;       HGA3      CG331       HGA3
   10    15    16	5 ;      CG311      CG311     CG2DC1
   10    15    24	5 ;      CG311      CG311     CG2R61
   10    15    84	5 ;      CG311      CG311       HGA1
   16    15    24	5 ;     CG2DC1      CG311     CG2R61
   16    15    84	5 ;     CG2DC1      CG311       HGA1
   24    15    84	5 ;     CG2R61      CG311       HGA1
   15    16    23	5 ;      CG311     CG2DC1     CG2R61
   15    16    17	5 ;      CG311     CG2DC1     CG2R51
   23    16    17	5 ;     CG2R61     CG2DC1     CG2R51
   16    17    20	5 ;     CG2DC1     CG2R51     CG2R52
   16    17    18	5 ;     CG2DC1     CG2R51     NG2R51
   20    17    18	5 ;     CG2R52     CG2R51     NG2R51
   17    18    22	5 ;     CG2R51     NG2R51     NG2R51
   17    18    19	5 ;     CG2R51     NG2R51      CG321
   22    18    19	5 ;     NG2R51     NG2R51      CG321
   11    19    18	5 ;      CG311      CG321     NG2R51
   11    19    57	5 ;      CG311      CG321       HGA2
   11    19    58	5 ;      CG311      CG321       HGA2
   18    19    57	5 ;     NG2R51      CG321       HGA2
   18    19    58	5 ;     NG2R51      CG321       HGA2
   57    19    58	5 ;       HGA2      CG321       HGA2
   17    20    40	5 ;     CG2R51     CG2R52      CG321
   17    20    21	5 ;     CG2R51     CG2R52     NG2R50
   40    20    21	5 ;      CG321     CG2R52     NG2R50
   20    21    22	5 ;     CG2R52     NG2R50     NG2R51
   18    22    21	5 ;     NG2R51     NG2R51     NG2R50
   18    22    85	5 ;     NG2R51     NG2R51       HGP1
   21    22    85	5 ;     NG2R50     NG2R51       HGP1
   16    23    25	5 ;     CG2DC1     CG2R61     CG2R61
   16    23    29	5 ;     CG2DC1     CG2R61     CG2R61
   25    23    29	5 ;     CG2R61     CG2R61     CG2R61
   15    24    30	5 ;      CG311     CG2R61     CG2R61
   15    24    34	5 ;      CG311     CG2R61     CG2R61
   30    24    34	5 ;     CG2R61     CG2R61     CG2R61
   23    25    26	5 ;     CG2R61     CG2R61     CG2R61
   23    25    59	5 ;     CG2R61     CG2R61      HGR61
   26    25    59	5 ;     CG2R61     CG2R61      HGR61
   25    26    60	5 ;     CG2R61     CG2R61      HGR61
   25    26    27	5 ;     CG2R61     CG2R61     CG2R61
   60    26    27	5 ;      HGR61     CG2R61     CG2R61
   26    27    61	5 ;     CG2R61     CG2R61      HGR61
   26    27    28	5 ;     CG2R61     CG2R61     CG2R61
   61    27    28	5 ;      HGR61     CG2R61     CG2R61
   27    28    62	5 ;     CG2R61     CG2R61      HGR61
   27    28    29	5 ;     CG2R61     CG2R61     CG2R61
   62    28    29	5 ;      HGR61     CG2R61     CG2R61
   23    29    28	5 ;     CG2R61     CG2R61     CG2R61
   23    29    63	5 ;     CG2R61     CG2R61      HGR61
   28    29    63	5 ;     CG2R61     CG2R61      HGR61
   24    30    31	5 ;     CG2R61     CG2R61     CG2R61
   24    30    64	5 ;     CG2R61     CG2R61      HGR61
   31    30    64	5 ;     CG2R61     CG2R61      HGR61
   30    31    65	5 ;     CG2R61     CG2R61      HGR61
   30    31    32	5 ;     CG2R61     CG2R61     CG2R61
   65    31    32	5 ;      HGR61     CG2R61     CG2R61
   31    32    66	5 ;     CG2R61     CG2R61      HGR61
   31    32    33	5 ;     CG2R61     CG2R61     CG2R61
   66    32    33	5 ;      HGR61     CG2R61     CG2R61
   32    33    67	5 ;     CG2R61     CG2R61      HGR61
   32    33    34	5 ;     CG2R61     CG2R61     CG2R61
   67    33    34	5 ;      HGR61     CG2R61     CG2R61
   24    34    33	5 ;     CG2R61     CG2R61     CG2R61
   24    34    68	5 ;     CG2R61     CG2R61      HGR61
   33    34    68	5 ;     CG2R61     CG2R61      HGR61
   36    35    69	5 ;      CG321      CG331       HGA3
   36    35    70	5 ;      CG321      CG331       HGA3
   36    35    71	5 ;      CG321      CG331       HGA3
   69    35    70	5 ;       HGA3      CG331       HGA3
   69    35    71	5 ;       HGA3      CG331       HGA3
   70    35    71	5 ;       HGA3      CG331       HGA3
   35    36    37	5 ;      CG331      CG321      CG321
   35    36    73	5 ;      CG331      CG321       HGA2
   35    36    72	5 ;      CG331      CG321       HGA2
   37    36    73	5 ;      CG321      CG321       HGA2
   37    36    72	5 ;      CG321      CG321       HGA2
   73    36    72	5 ;       HGA2      CG321       HGA2
   36    37    74	5 ;      CG321      CG321       HGA2
   36    37    75	5 ;      CG321      CG321       HGA2
   36    37    38	5 ;      CG321      CG321      CG321
   74    37    75	5 ;       HGA2      CG321       HGA2
   74    37    38	5 ;       HGA2      CG321      CG321
   75    37    38	5 ;       HGA2      CG321      CG321
   37    38    39	5 ;      CG321      CG321      CG321
   37    38    77	5 ;      CG321      CG321       HGA2
   37    38    76	5 ;      CG321      CG321       HGA2
   39    38    77	5 ;      CG321      CG321       HGA2
   39    38    76	5 ;      CG321      CG321       HGA2
   77    38    76	5 ;       HGA2      CG321       HGA2
   38    39    78	5 ;      CG321      CG321       HGA2
   38    39    40	5 ;      CG321      CG321      CG321
   38    39    79	5 ;      CG321      CG321       HGA2
   78    39    40	5 ;       HGA2      CG321      CG321
   78    39    79	5 ;       HGA2      CG321       HGA2
   40    39    79	5 ;      CG321      CG321       HGA2
   20    40    39	5 ;     CG2R52      CG321      CG321
   20    40    80	5 ;     CG2R52      CG321       HGA2
   20    40    81	5 ;     CG2R52      CG321       HGA2
   39    40    80	5 ;      CG321      CG321       HGA2
   39    40    81	5 ;      CG321      CG321       HGA2
   80    40    81	5 ;       HGA2      CG321       HGA2

[ dihedrals ]
;	ai	  aj	ak	  al funct			  c0			c1			  c2			c3			  c4			c5
   41     1     6     5	 9 ;      HGR61     CG2R61     CG2R61     CG2R61
   41     1     6    43	 9 ;      HGR61     CG2R61     CG2R61      HGR61
    2     1     6     5	 9 ;     CG2R61     CG2R61     CG2R61     CG2R61
    2     1     6    43	 9 ;     CG2R61     CG2R61     CG2R61      HGR61
    6     1     2     3	 9 ;     CG2R61     CG2R61     CG2R61     CG2R61
    6     1     2    12	 9 ;     CG2R61     CG2R61     CG2R61      CG331
   41     1     2     3	 9 ;      HGR61     CG2R61     CG2R61     CG2R61
   41     1     2    12	 9 ;      HGR61     CG2R61     CG2R61      CG331
    1     2     3     4	 9 ;     CG2R61     CG2R61     CG2R61     CG2R61
    1     2     3    42	 9 ;     CG2R61     CG2R61     CG2R61      HGR61
   12     2     3     4	 9 ;      CG331     CG2R61     CG2R61     CG2R61
   12     2     3    42	 9 ;      CG331     CG2R61     CG2R61      HGR61
    1     2    12    49	 9 ;     CG2R61     CG2R61      CG331       HGA3
    1     2    12    48	 9 ;     CG2R61     CG2R61      CG331       HGA3
    1     2    12    50	 9 ;     CG2R61     CG2R61      CG331       HGA3
    3     2    12    49	 9 ;     CG2R61     CG2R61      CG331       HGA3
    3     2    12    48	 9 ;     CG2R61     CG2R61      CG331       HGA3
    3     2    12    50	 9 ;     CG2R61     CG2R61      CG331       HGA3
    2     3     4     5	 9 ;     CG2R61     CG2R61     CG2R61     CG2R61
    2     3     4     7	 9 ;     CG2R61     CG2R61     CG2R61      CG301
   42     3     4     5	 9 ;      HGR61     CG2R61     CG2R61     CG2R61
   42     3     4     7	 9 ;      HGR61     CG2R61     CG2R61      CG301
    3     4     5    11	 9 ;     CG2R61     CG2R61     CG2R61      CG311
    3     4     5     6	 9 ;     CG2R61     CG2R61     CG2R61     CG2R61
    7     4     5    11	 9 ;      CG301     CG2R61     CG2R61      CG311
    7     4     5     6	 9 ;      CG301     CG2R61     CG2R61     CG2R61
    3     4     7     8	 9 ;     CG2R61     CG2R61      CG301      CG321
    3     4     7    14	 9 ;     CG2R61     CG2R61      CG301      CG331
    3     4     7    13	 9 ;     CG2R61     CG2R61      CG301      CG331
    5     4     7     8	 9 ;     CG2R61     CG2R61      CG301      CG321
    5     4     7    14	 9 ;     CG2R61     CG2R61      CG301      CG331
    5     4     7    13	 9 ;     CG2R61     CG2R61      CG301      CG331
    4     5    11    10	 9 ;     CG2R61     CG2R61      CG311      CG311
    4     5    11    19	 9 ;     CG2R61     CG2R61      CG311      CG321
    4     5    11    83	 9 ;     CG2R61     CG2R61      CG311       HGA1
    6     5    11    10	 9 ;     CG2R61     CG2R61      CG311      CG311
    6     5    11    19	 9 ;     CG2R61     CG2R61      CG311      CG321
    6     5    11    83	 9 ;     CG2R61     CG2R61      CG311       HGA1
    4     5     6     1	 9 ;     CG2R61     CG2R61     CG2R61     CG2R61
    4     5     6    43	 9 ;     CG2R61     CG2R61     CG2R61      HGR61
   11     5     6     1	 9 ;      CG311     CG2R61     CG2R61     CG2R61
   11     5     6    43	 9 ;      CG311     CG2R61     CG2R61      HGR61
    4     7     8     9	 9 ;     CG2R61      CG301      CG321      CG321
    4     7     8    45	 9 ;     CG2R61      CG301      CG321       HGA2
    4     7     8    44	 9 ;     CG2R61      CG301      CG321       HGA2
   14     7     8     9	 9 ;      CG331      CG301      CG321      CG321
   14     7     8    45	 9 ;      CG331      CG301      CG321       HGA2
   14     7     8    44	 9 ;      CG331      CG301      CG321       HGA2
   13     7     8     9	 9 ;      CG331      CG301      CG321      CG321
   13     7     8    45	 9 ;      CG331      CG301      CG321       HGA2
   13     7     8    44	 9 ;      CG331      CG301      CG321       HGA2
    4     7    14    54	 9 ;     CG2R61      CG301      CG331       HGA3
    4     7    14    56	 9 ;     CG2R61      CG301      CG331       HGA3
    4     7    14    55	 9 ;     CG2R61      CG301      CG331       HGA3
    8     7    14    54	 9 ;      CG321      CG301      CG331       HGA3
    8     7    14    56	 9 ;      CG321      CG301      CG331       HGA3
    8     7    14    55	 9 ;      CG321      CG301      CG331       HGA3
   13     7    14    54	 9 ;      CG331      CG301      CG331       HGA3
   13     7    14    56	 9 ;      CG331      CG301      CG331       HGA3
   13     7    14    55	 9 ;      CG331      CG301      CG331       HGA3
    4     7    13    51	 9 ;     CG2R61      CG301      CG331       HGA3
    4     7    13    53	 9 ;     CG2R61      CG301      CG331       HGA3
    4     7    13    52	 9 ;     CG2R61      CG301      CG331       HGA3
    8     7    13    51	 9 ;      CG321      CG301      CG331       HGA3
    8     7    13    53	 9 ;      CG321      CG301      CG331       HGA3
    8     7    13    52	 9 ;      CG321      CG301      CG331       HGA3
   14     7    13    51	 9 ;      CG331      CG301      CG331       HGA3
   14     7    13    53	 9 ;      CG331      CG301      CG331       HGA3
   14     7    13    52	 9 ;      CG331      CG301      CG331       HGA3
    7     8     9    46	 9 ;      CG301      CG321      CG321       HGA2
    7     8     9    10	 9 ;      CG301      CG321      CG321      CG311
    7     8     9    47	 9 ;      CG301      CG321      CG321       HGA2
   45     8     9    46	 9 ;       HGA2      CG321      CG321       HGA2
   45     8     9    10	 9 ;       HGA2      CG321      CG321      CG311
   45     8     9    47	 9 ;       HGA2      CG321      CG321       HGA2
   44     8     9    46	 9 ;       HGA2      CG321      CG321       HGA2
   44     8     9    10	 9 ;       HGA2      CG321      CG321      CG311
   44     8     9    47	 9 ;       HGA2      CG321      CG321       HGA2
    8     9    10    15	 9 ;      CG321      CG321      CG311      CG311
    8     9    10    11	 9 ;      CG321      CG321      CG311      CG311
    8     9    10    82	 9 ;      CG321      CG321      CG311       HGA1
   46     9    10    15	 9 ;       HGA2      CG321      CG311      CG311
   46     9    10    11	 9 ;       HGA2      CG321      CG311      CG311
   46     9    10    82	 9 ;       HGA2      CG321      CG311       HGA1
   47     9    10    15	 9 ;       HGA2      CG321      CG311      CG311
   47     9    10    11	 9 ;       HGA2      CG321      CG311      CG311
   47     9    10    82	 9 ;       HGA2      CG321      CG311       HGA1
    9    10    15    16	 9 ;      CG321      CG311      CG311     CG2DC1
    9    10    15    24	 9 ;      CG321      CG311      CG311     CG2R61
    9    10    15    84	 9 ;      CG321      CG311      CG311       HGA1
   11    10    15    16	 9 ;      CG311      CG311      CG311     CG2DC1
   11    10    15    24	 9 ;      CG311      CG311      CG311     CG2R61
   11    10    15    84	 9 ;      CG311      CG311      CG311       HGA1
   82    10    15    16	 9 ;       HGA1      CG311      CG311     CG2DC1
   82    10    15    24	 9 ;       HGA1      CG311      CG311     CG2R61
   82    10    15    84	 9 ;       HGA1      CG311      CG311       HGA1
    9    10    11     5	 9 ;      CG321      CG311      CG311     CG2R61
    9    10    11    19	 9 ;      CG321      CG311      CG311      CG321
    9    10    11    83	 9 ;      CG321      CG311      CG311       HGA1
   15    10    11     5	 9 ;      CG311      CG311      CG311     CG2R61
   15    10    11    19	 9 ;      CG311      CG311      CG311      CG321
   15    10    11    83	 9 ;      CG311      CG311      CG311       HGA1
   82    10    11     5	 9 ;       HGA1      CG311      CG311     CG2R61
   82    10    11    19	 9 ;       HGA1      CG311      CG311      CG321
   82    10    11    83	 9 ;       HGA1      CG311      CG311       HGA1
    5    11    19    18	 9 ;     CG2R61      CG311      CG321     NG2R51
    5    11    19    57	 9 ;     CG2R61      CG311      CG321       HGA2
    5    11    19    58	 9 ;     CG2R61      CG311      CG321       HGA2
   10    11    19    18	 9 ;      CG311      CG311      CG321     NG2R51
   10    11    19    57	 9 ;      CG311      CG311      CG321       HGA2
   10    11    19    58	 9 ;      CG311      CG311      CG321       HGA2
   83    11    19    18	 9 ;       HGA1      CG311      CG321     NG2R51
   83    11    19    57	 9 ;       HGA1      CG311      CG321       HGA2
   83    11    19    58	 9 ;       HGA1      CG311      CG321       HGA2
   10    15    16    23	 9 ;      CG311      CG311     CG2DC1     CG2R61
   10    15    16    17	 9 ;      CG311      CG311     CG2DC1     CG2R51
   24    15    16    23	 9 ;     CG2R61      CG311     CG2DC1     CG2R61
   24    15    16    17	 9 ;     CG2R61      CG311     CG2DC1     CG2R51
   84    15    16    23	 9 ;       HGA1      CG311     CG2DC1     CG2R61
   84    15    16    17	 9 ;       HGA1      CG311     CG2DC1     CG2R51
   10    15    24    30	 9 ;      CG311      CG311     CG2R61     CG2R61
   10    15    24    34	 9 ;      CG311      CG311     CG2R61     CG2R61
   16    15    24    30	 9 ;     CG2DC1      CG311     CG2R61     CG2R61
   16    15    24    34	 9 ;     CG2DC1      CG311     CG2R61     CG2R61
   84    15    24    30	 9 ;       HGA1      CG311     CG2R61     CG2R61
   84    15    24    34	 9 ;       HGA1      CG311     CG2R61     CG2R61
   15    16    23    25	 9 ;      CG311     CG2DC1     CG2R61     CG2R61
   15    16    23    29	 9 ;      CG311     CG2DC1     CG2R61     CG2R61
   17    16    23    25	 9 ;     CG2R51     CG2DC1     CG2R61     CG2R61
   17    16    23    29	 9 ;     CG2R51     CG2DC1     CG2R61     CG2R61
   15    16    17    20	 9 ;      CG311     CG2DC1     CG2R51     CG2R52
   15    16    17    18	 9 ;      CG311     CG2DC1     CG2R51     NG2R51
   23    16    17    20	 9 ;     CG2R61     CG2DC1     CG2R51     CG2R52
   23    16    17    18	 9 ;     CG2R61     CG2DC1     CG2R51     NG2R51
   16    17    20    40	 9 ;     CG2DC1     CG2R51     CG2R52      CG321
   16    17    20    21	 9 ;     CG2DC1     CG2R51     CG2R52     NG2R50
   18    17    20    40	 9 ;     NG2R51     CG2R51     CG2R52      CG321
   18    17    20    21	 9 ;     NG2R51     CG2R51     CG2R52     NG2R50
   16    17    18    22	 9 ;     CG2DC1     CG2R51     NG2R51     NG2R51
   16    17    18    19	 9 ;     CG2DC1     CG2R51     NG2R51      CG321
   20    17    18    22	 9 ;     CG2R52     CG2R51     NG2R51     NG2R51
   20    17    18    19	 9 ;     CG2R52     CG2R51     NG2R51      CG321
   17    18    22    21	 9 ;     CG2R51     NG2R51     NG2R51     NG2R50
   17    18    22    85	 9 ;     CG2R51     NG2R51     NG2R51       HGP1
   19    18    22    21	 9 ;      CG321     NG2R51     NG2R51     NG2R50
   19    18    22    85	 9 ;      CG321     NG2R51     NG2R51       HGP1
   17    18    19    11	 9 ;     CG2R51     NG2R51      CG321      CG311
   17    18    19    57	 9 ;     CG2R51     NG2R51      CG321       HGA2
   17    18    19    58	 9 ;     CG2R51     NG2R51      CG321       HGA2
   22    18    19    11	 9 ;     NG2R51     NG2R51      CG321      CG311
   22    18    19    57	 9 ;     NG2R51     NG2R51      CG321       HGA2
   22    18    19    58	 9 ;     NG2R51     NG2R51      CG321       HGA2
   17    20    40    39	 9 ;     CG2R51     CG2R52      CG321      CG321
   17    20    40    80	 9 ;     CG2R51     CG2R52      CG321       HGA2
   17    20    40    81	 9 ;     CG2R51     CG2R52      CG321       HGA2
   21    20    40    39	 9 ;     NG2R50     CG2R52      CG321      CG321
   21    20    40    80	 9 ;     NG2R50     CG2R52      CG321       HGA2
   21    20    40    81	 9 ;     NG2R50     CG2R52      CG321       HGA2
   17    20    21    22	 9 ;     CG2R51     CG2R52     NG2R50     NG2R51
   40    20    21    22	 9 ;      CG321     CG2R52     NG2R50     NG2R51
   20    21    22    18	 9 ;     CG2R52     NG2R50     NG2R51     NG2R51
   20    21    22    85	 9 ;     CG2R52     NG2R50     NG2R51       HGP1
   16    23    25    26	 9 ;     CG2DC1     CG2R61     CG2R61     CG2R61
   16    23    25    59	 9 ;     CG2DC1     CG2R61     CG2R61      HGR61
   29    23    25    26	 9 ;     CG2R61     CG2R61     CG2R61     CG2R61
   29    23    25    59	 9 ;     CG2R61     CG2R61     CG2R61      HGR61
   16    23    29    28	 9 ;     CG2DC1     CG2R61     CG2R61     CG2R61
   16    23    29    63	 9 ;     CG2DC1     CG2R61     CG2R61      HGR61
   25    23    29    28	 9 ;     CG2R61     CG2R61     CG2R61     CG2R61
   25    23    29    63	 9 ;     CG2R61     CG2R61     CG2R61      HGR61
   15    24    30    31	 9 ;      CG311     CG2R61     CG2R61     CG2R61
   15    24    30    64	 9 ;      CG311     CG2R61     CG2R61      HGR61
   34    24    30    31	 9 ;     CG2R61     CG2R61     CG2R61     CG2R61
   34    24    30    64	 9 ;     CG2R61     CG2R61     CG2R61      HGR61
   15    24    34    33	 9 ;      CG311     CG2R61     CG2R61     CG2R61
   15    24    34    68	 9 ;      CG311     CG2R61     CG2R61      HGR61
   30    24    34    33	 9 ;     CG2R61     CG2R61     CG2R61     CG2R61
   30    24    34    68	 9 ;     CG2R61     CG2R61     CG2R61      HGR61
   23    25    26    60	 9 ;     CG2R61     CG2R61     CG2R61      HGR61
   23    25    26    27	 9 ;     CG2R61     CG2R61     CG2R61     CG2R61
   59    25    26    60	 9 ;      HGR61     CG2R61     CG2R61      HGR61
   59    25    26    27	 9 ;      HGR61     CG2R61     CG2R61     CG2R61
   25    26    27    61	 9 ;     CG2R61     CG2R61     CG2R61      HGR61
   25    26    27    28	 9 ;     CG2R61     CG2R61     CG2R61     CG2R61
   60    26    27    61	 9 ;      HGR61     CG2R61     CG2R61      HGR61
   60    26    27    28	 9 ;      HGR61     CG2R61     CG2R61     CG2R61
   26    27    28    62	 9 ;     CG2R61     CG2R61     CG2R61      HGR61
   26    27    28    29	 9 ;     CG2R61     CG2R61     CG2R61     CG2R61
   61    27    28    62	 9 ;      HGR61     CG2R61     CG2R61      HGR61
   61    27    28    29	 9 ;      HGR61     CG2R61     CG2R61     CG2R61
   27    28    29    23	 9 ;     CG2R61     CG2R61     CG2R61     CG2R61
   27    28    29    63	 9 ;     CG2R61     CG2R61     CG2R61      HGR61
   62    28    29    23	 9 ;      HGR61     CG2R61     CG2R61     CG2R61
   62    28    29    63	 9 ;      HGR61     CG2R61     CG2R61      HGR61
   24    30    31    65	 9 ;     CG2R61     CG2R61     CG2R61      HGR61
   24    30    31    32	 9 ;     CG2R61     CG2R61     CG2R61     CG2R61
   64    30    31    65	 9 ;      HGR61     CG2R61     CG2R61      HGR61
   64    30    31    32	 9 ;      HGR61     CG2R61     CG2R61     CG2R61
   30    31    32    66	 9 ;     CG2R61     CG2R61     CG2R61      HGR61
   30    31    32    33	 9 ;     CG2R61     CG2R61     CG2R61     CG2R61
   65    31    32    66	 9 ;      HGR61     CG2R61     CG2R61      HGR61
   65    31    32    33	 9 ;      HGR61     CG2R61     CG2R61     CG2R61
   31    32    33    67	 9 ;     CG2R61     CG2R61     CG2R61      HGR61
   31    32    33    34	 9 ;     CG2R61     CG2R61     CG2R61     CG2R61
   66    32    33    67	 9 ;      HGR61     CG2R61     CG2R61      HGR61
   66    32    33    34	 9 ;      HGR61     CG2R61     CG2R61     CG2R61
   32    33    34    24	 9 ;     CG2R61     CG2R61     CG2R61     CG2R61
   32    33    34    68	 9 ;     CG2R61     CG2R61     CG2R61      HGR61
   67    33    34    24	 9 ;      HGR61     CG2R61     CG2R61     CG2R61
   67    33    34    68	 9 ;      HGR61     CG2R61     CG2R61      HGR61
   69    35    36    37	 9 ;       HGA3      CG331      CG321      CG321
   69    35    36    73	 9 ;       HGA3      CG331      CG321       HGA2
   69    35    36    72	 9 ;       HGA3      CG331      CG321       HGA2
   70    35    36    37	 9 ;       HGA3      CG331      CG321      CG321
   70    35    36    73	 9 ;       HGA3      CG331      CG321       HGA2
   70    35    36    72	 9 ;       HGA3      CG331      CG321       HGA2
   71    35    36    37	 9 ;       HGA3      CG331      CG321      CG321
   71    35    36    73	 9 ;       HGA3      CG331      CG321       HGA2
   71    35    36    72	 9 ;       HGA3      CG331      CG321       HGA2
   35    36    37    74	 9 ;      CG331      CG321      CG321       HGA2
   35    36    37    75	 9 ;      CG331      CG321      CG321       HGA2
   35    36    37    38	 9 ;      CG331      CG321      CG321      CG321
   73    36    37    74	 9 ;       HGA2      CG321      CG321       HGA2
   73    36    37    75	 9 ;       HGA2      CG321      CG321       HGA2
   73    36    37    38	 9 ;       HGA2      CG321      CG321      CG321
   72    36    37    74	 9 ;       HGA2      CG321      CG321       HGA2
   72    36    37    75	 9 ;       HGA2      CG321      CG321       HGA2
   72    36    37    38	 9 ;       HGA2      CG321      CG321      CG321
   36    37    38    39	 9 ;      CG321      CG321      CG321      CG321
   36    37    38    77	 9 ;      CG321      CG321      CG321       HGA2
   36    37    38    76	 9 ;      CG321      CG321      CG321       HGA2
   74    37    38    39	 9 ;       HGA2      CG321      CG321      CG321
   74    37    38    77	 9 ;       HGA2      CG321      CG321       HGA2
   74    37    38    76	 9 ;       HGA2      CG321      CG321       HGA2
   75    37    38    39	 9 ;       HGA2      CG321      CG321      CG321
   75    37    38    77	 9 ;       HGA2      CG321      CG321       HGA2
   75    37    38    76	 9 ;       HGA2      CG321      CG321       HGA2
   37    38    39    78	 9 ;      CG321      CG321      CG321       HGA2
   37    38    39    40	 9 ;      CG321      CG321      CG321      CG321
   37    38    39    79	 9 ;      CG321      CG321      CG321       HGA2
   77    38    39    78	 9 ;       HGA2      CG321      CG321       HGA2
   77    38    39    40	 9 ;       HGA2      CG321      CG321      CG321
   77    38    39    79	 9 ;       HGA2      CG321      CG321       HGA2
   76    38    39    78	 9 ;       HGA2      CG321      CG321       HGA2
   76    38    39    40	 9 ;       HGA2      CG321      CG321      CG321
   76    38    39    79	 9 ;       HGA2      CG321      CG321       HGA2
   38    39    40    20	 9 ;      CG321      CG321      CG321     CG2R52
   38    39    40    80	 9 ;      CG321      CG321      CG321       HGA2
   38    39    40    81	 9 ;      CG321      CG321      CG321       HGA2
   78    39    40    20	 9 ;       HGA2      CG321      CG321     CG2R52
   78    39    40    80	 9 ;       HGA2      CG321      CG321       HGA2
   78    39    40    81	 9 ;       HGA2      CG321      CG321       HGA2
   79    39    40    20	 9 ;       HGA2      CG321      CG321     CG2R52
   79    39    40    80	 9 ;       HGA2      CG321      CG321       HGA2
   79    39    40    81	 9 ;       HGA2      CG321      CG321       HGA2
; Ligand position restraints
#ifdef POSRES
#include "posre_jz4.itp"
#endif
