mol in water
 4053
    1JZ4     C1    1   1.905   1.656   1.294
    1JZ4     C2    2   2.018   1.580   1.266
    1JZ4     C3    3   2.086   1.519   1.370
    1JZ4     C4    4   2.045   1.531   1.504
    1JZ4     C5    5   1.929   1.606   1.529
    1JZ4     C6    6   1.861   1.668   1.425
    1JZ4     C7    7   2.120   1.459   1.617
    1JZ4     C8    8   2.173   1.556   1.728
    1JZ4     C9    9   2.093   1.685   1.743
    1JZ4    C10   10   1.949   1.651   1.770
    1JZ4    C11   11   1.872   1.617   1.665
    1JZ4    C12   12   2.065   1.562   1.124
    1JZ4    C13   13   2.026   1.351   1.679
    1JZ4    C14   14   2.245   1.387   1.563
    1JZ4    C15   15   1.900   1.670   1.910
    1JZ4    C16   16   1.782   1.728   1.944
    1JZ4    C17   17   1.672   1.756   1.843
    1JZ4    N18   18   1.656   1.697   1.722
    1JZ4    C19   19   1.729   1.578   1.682
    1JZ4    C20   20   1.558   1.840   1.849
    1JZ4    N21   21   1.509   1.835   1.724
    1JZ4    N22   22   1.563   1.748   1.637
    1JZ4    C23   23   1.759   1.767   2.084
    1JZ4    C24   24   1.997   1.612   2.011
    1JZ4    C25   25   1.695   1.683   2.173
    1JZ4    C26   26   1.645   1.731   2.293
    1JZ4    C27   27   1.666   1.864   2.327
    1JZ4    C28   28   1.748   1.944   2.248
    1JZ4    C29   29   1.796   1.893   2.128
    1JZ4    C30   30   1.076   1.893   1.445
    1JZ4    C31   31   1.098   2.004   1.548
    1JZ4    C32   32   1.240   2.002   1.606
    1JZ4    C33   33   1.262   2.116   1.707
    1JZ4    C34   34   1.383   2.094   1.800
    1JZ4    C35   35   1.360   1.980   1.900
    1JZ4    C36   36   1.488   1.918   1.960
    1JZ4    H37   37   1.850   1.704   1.214
    1JZ4    H38   38   2.171   1.460   1.342
    1JZ4    H39   39   1.772   1.725   1.444
    1JZ4    H40   40   2.180   1.505   1.823
    1JZ4    H41   41   2.276   1.582   1.705
    1JZ4    H42   42   2.102   1.745   1.652
    1JZ4    H43   43   2.133   1.751   1.819
    1JZ4    H44   44   1.988   1.593   1.053
    1JZ4    H45   45   2.090   1.458   1.105
    1JZ4    H46   46   2.154   1.622   1.107
    1JZ4    H47   47   2.044   1.252   1.636
    1JZ4    H48   48   1.920   1.371   1.665
    1JZ4    H49   49   2.039   1.343   1.787
    1JZ4    H50   50   2.219   1.307   1.493
    1JZ4    H51   51   2.304   1.342   1.642
    1JZ4    H52   52   2.309   1.458   1.511
    1JZ4    H53   53   1.687   1.538   1.591
    1JZ4    H54   54   1.719   1.502   1.760
    1JZ4    H55   55   2.020   1.509   1.987
    1JZ4    H56   56   1.960   1.614   2.113
    1JZ4    H57   57   2.092   1.665   2.011
    1JZ4    H58   58   1.680   1.580   2.146
    1JZ4    H59   59   1.589   1.666   2.359
    1JZ4    H60   60   1.625   1.904   2.419
    1JZ4    H61   61   1.771   2.045   2.277
    1JZ4    H62   62   1.859   1.955   2.066
    1JZ4    H63   63   1.096   1.795   1.489
    1JZ4    H64   64   0.974   1.893   1.408
    1JZ4    H65   65   1.143   1.905   1.359
    1JZ4    H66   66   1.027   1.992   1.629
    1JZ4    H67   67   1.077   2.101   1.503
    1JZ4    H68   68   1.314   2.009   1.526
    1JZ4    H69   69   1.255   1.905   1.651
    1JZ4    H70   70   1.174   2.126   1.769
    1JZ4    H71   71   1.273   2.210   1.654
    1JZ4    H72   72   1.405   2.185   1.855
    1JZ4    H73   73   1.471   2.077   1.737
    1JZ4    H74   74   1.307   1.900   1.850
    1JZ4    H75   75   1.291   2.011   1.977
    1JZ4    H76   76   1.463   1.850   2.040
    1JZ4    H77   77   1.548   1.994   2.007
    1JZ4     H1   78   1.818   1.737   1.926
    1JZ4     H2   79   1.796   1.674   1.853
    1JZ4     H3   80   1.750   1.764   1.915
    1JZ4     H4   81   1.541   1.728   1.543
    2SOL     OW   82   0.230   0.628   0.113
    2SOL    HW1   83   0.137   0.626   0.150
    2SOL    HW2   84   0.231   0.589   0.021
    3SOL     OW   85   0.225   0.275   0.996
    3SOL    HW1   86   0.260   0.258   1.088
    3SOL    HW2   87   0.137   0.230   0.984
    4SOL     OW   88   0.019   0.368   0.647
    4SOL    HW1   89  -0.063   0.411   0.686
    4SOL    HW2   90  -0.009   0.295   0.584
    5SOL     OW   91   0.569   1.275   1.165
    5SOL    HW1   92   0.476   1.268   1.128
    5SOL    HW2   93   0.580   1.364   1.209
    6SOL     OW   94   1.555   1.511   0.703
    6SOL    HW1   95   1.498   1.495   0.784
    6SOL    HW2   96   1.496   1.521   0.623
    7SOL     OW   97   1.135   0.703   0.717
    7SOL    HW1   98   1.192   0.781   0.692
    7SOL    HW2   99   1.075   0.729   0.793
    8SOL     OW  100   1.755   0.607   0.231
    8SOL    HW1  101   1.743   0.594   0.132
    8SOL    HW2  102   1.725   0.526   0.280
    9SOL     OW  103   0.768   1.144   1.023
    9SOL    HW1  104   0.690   1.161   1.083
    9SOL    HW2  105   0.802   1.231   0.987
   10SOL     OW  106   0.850   0.798   1.823
   10SOL    HW1  107   0.846   0.874   1.888
   10SOL    HW2  108   0.872   0.834   1.732
   11SOL     OW  109   0.685   1.012   0.665
   11SOL    HW1  110   0.754   0.996   0.735
   11SOL    HW2  111   0.612   1.069   0.703
   12SOL     OW  112   0.686   1.161   1.803
   12SOL    HW1  113   0.746   1.240   1.817
   12SOL    HW2  114   0.600   1.192   1.762
   13SOL     OW  115   0.335   1.435   1.061
   13SOL    HW1  116   0.257   1.404   1.008
   13SOL    HW2  117   0.393   1.493   1.004
   14SOL     OW  118   1.460   1.505   1.339
   14SOL    HW1  119   1.484   1.599   1.365
   14SOL    HW2  120   1.444   1.451   1.421
   15SOL     OW  121   0.438   0.392   1.499
   15SOL    HW1  122   0.520   0.336   1.508
   15SOL    HW2  123   0.357   0.334   1.503
   16SOL     OW  124   1.603   0.447   0.737
   16SOL    HW1  125   1.529   0.493   0.687
   16SOL    HW2  126   1.654   0.515   0.790
   17SOL     OW  127   0.231   1.713   0.483
   17SOL    HW1  128   0.265   1.790   0.537
   17SOL    HW2  129   0.275   1.713   0.393
   18SOL     OW  130   1.127   1.341   1.690
   18SOL    HW1  131   1.174   1.341   1.778
   18SOL    HW2  132   1.079   1.254   1.679
   19SOL     OW  133   0.230   1.434   0.538
   19SOL    HW1  134   0.204   1.530   0.538
   19SOL    HW2  135   0.159   1.380   0.583
   20SOL     OW  136   0.240   1.091   0.886
   20SOL    HW1  137   0.254   1.007   0.938
   20SOL    HW2  138   0.185   1.155   0.941
   21SOL     OW  139   0.620   1.786   1.439
   21SOL    HW1  140   0.528   1.769   1.474
   21SOL    HW2  141   0.648   1.878   1.465
   22SOL     OW  142   0.606   0.964   0.123
   22SOL    HW1  143   0.613   1.048   0.069
   22SOL    HW2  144   0.652   0.977   0.211
   23SOL     OW  145   1.594   0.114   1.480
   23SOL    HW1  146   1.576   0.181   1.408
   23SOL    HW2  147   1.591   0.160   1.569
   24SOL     OW  148   0.122   0.643   0.563
   24SOL    HW1  149   0.077   0.555   0.580
   24SOL    HW2  150   0.121   0.697   0.647
   25SOL     OW  151   1.842   1.767   0.359
   25SOL    HW1  152   1.896   1.738   0.439
   25SOL    HW2  153   1.872   1.857   0.330
   26SOL     OW  154   0.027   1.596   0.117
   26SOL    HW1  155   0.008   1.500   0.138
   26SOL    HW2  156  -0.006   1.654   0.192
   27SOL     OW  157   1.689   0.922   0.612
   27SOL    HW1  158   1.784   0.893   0.620
   27SOL    HW2  159   1.681   0.987   0.537
   28SOL     OW  160   1.641   1.108   0.432
   28SOL    HW1  161   1.727   1.110   0.380
   28SOL    HW2  162   1.655   1.155   0.520
   29SOL     OW  163   0.113   0.737   1.597
   29SOL    HW1  164   0.201   0.724   1.642
   29SOL    HW2  165   0.100   0.834   1.575
   30SOL     OW  166   0.613   1.365   0.726
   30SOL    HW1  167   0.564   1.278   0.735
   30SOL    HW2  168   0.590   1.408   0.639
   31SOL     OW  169   1.293   1.228   1.423
   31SOL    HW1  170   1.330   1.155   1.365
   31SOL    HW2  171   1.345   1.233   1.508
   32SOL     OW  172   0.809   0.004   0.502
   32SOL    HW1  173   0.849   0.095   0.493
   32SOL    HW2  174   0.709   0.012   0.508
   33SOL     OW  175   0.197   0.976   1.264
   33SOL    HW1  176   0.286   0.931   1.250
   33SOL    HW2  177   0.124   0.911   1.245
   34SOL     OW  178   1.525   0.999   0.190
   34SOL    HW1  179   1.462   0.923   0.203
   34SOL    HW2  180   1.573   1.017   0.276
   35SOL     OW  181   0.317   0.251   1.801
   35SOL    HW1  182   0.388   0.322   1.807
   35SOL    HW2  183   0.229   0.290   1.829
   36SOL     OW  184   1.466   1.417   0.953
   36SOL    HW1  185   1.407   1.423   1.033
   36SOL    HW2  186   1.451   1.329   0.907
   37SOL     OW  187   1.667   1.714   0.572
   37SOL    HW1  188   1.626   1.691   0.484
   37SOL    HW2  189   1.649   1.640   0.637
   38SOL     OW  190   0.598   0.729   0.270
   38SOL    HW1  191   0.622   0.798   0.202
   38SOL    HW2  192   0.520   0.762   0.324
   39SOL     OW  193   1.281   0.345   0.944
   39SOL    HW1  194   1.195   0.295   0.931
   39SOL    HW2  195   1.343   0.291   1.000
   40SOL     OW  196   1.576   1.662   0.307
   40SOL    HW1  197   1.665   1.708   0.310
   40SOL    HW2  198   1.555   1.638   0.212
   41SOL     OW  199   0.807   0.605   1.465
   41SOL    HW1  200   0.760   0.602   1.554
   41SOL    HW2  201   0.756   0.550   1.399
   42SOL     OW  202   1.394   0.469   1.674
   42SOL    HW1  203   1.374   0.512   1.762
   42SOL    HW2  204   1.472   0.407   1.683
   43SOL     OW  205   0.973   0.890   1.572
   43SOL    HW1  206   1.019   0.806   1.543
   43SOL    HW2  207   0.917   0.924   1.497
   44SOL     OW  208   0.991   0.410   1.242
   44SOL    HW1  209   0.914   0.444   1.296
   44SOL    HW2  210   0.957   0.359   1.163
   45SOL     OW  211   1.041   0.701   0.429
   45SOL    HW1  212   1.067   0.697   0.525
   45SOL    HW2  213   0.956   0.650   0.415
   46SOL     OW  214   0.076   0.811   0.789
   46SOL    HW1  215   0.175   0.799   0.798
   46SOL    HW2  216   0.052   0.906   0.810
   47SOL     OW  217   0.130   1.821   1.571
   47SOL    HW1  218   0.120   1.806   1.670
   47SOL    HW2  219   0.044   1.857   1.535
   48SOL     OW  220   0.865   0.348   0.195
   48SOL    HW1  221   0.924   0.411   0.146
   48SOL    HW2  222   0.884   0.254   0.166
   49SOL     OW  223   1.719   0.585   1.831
   49SOL    HW1  224   1.693   0.674   1.795
   49SOL    HW2  225   1.717   0.517   1.758
   50SOL     OW  226   1.362   1.144   0.545
   50SOL    HW1  227   1.445   1.115   0.497
   50SOL    HW2  228   1.313   1.211   0.489
   51SOL     OW  229   0.550   0.196   0.885
   51SOL    HW1  230   0.545   0.191   0.985
   51SOL    HW2  231   0.552   0.292   0.856
   52SOL     OW  232   1.008   1.456   0.477
   52SOL    HW1  233   0.962   1.528   0.425
   52SOL    HW2  234   1.004   1.476   0.575
   53SOL     OW  235   0.351   1.801   0.853
   53SOL    HW1  236   0.401   1.715   0.859
   53SOL    HW2  237   0.416   1.878   0.850
   54SOL     OW  238   1.795   1.066   0.873
   54SOL    HW1  239   1.733   1.051   0.797
   54SOL    HW2  240   1.743   1.077   0.958
   55SOL     OW  241   1.227   1.550   1.506
   55SOL    HW1  242   1.233   1.473   1.570
   55SOL    HW2  243   1.175   1.524   1.426
   56SOL     OW  244   0.321   0.943   0.242
   56SOL    HW1  245   0.403   0.982   0.200
   56SOL    HW2  246   0.294   0.861   0.193
   57SOL     OW  247   1.458   0.735   0.728
   57SOL    HW1  248   1.453   0.670   0.803
   57SOL    HW2  249   1.538   0.794   0.741
   58SOL     OW  250   0.461   1.266   1.727
   58SOL    HW1  251   0.411   1.267   1.641
   58SOL    HW2  252   0.398   1.248   1.803
   59SOL     OW  253   1.111   1.776   0.237
   59SOL    HW1  254   1.051   1.714   0.287
   59SOL    HW2  255   1.142   1.732   0.152
   60SOL     OW  256   0.202   0.285   1.498
   60SOL    HW1  257   0.122   0.345   1.485
   60SOL    HW2  258   0.192   0.236   1.584
   61SOL     OW  259   1.632   1.377   0.081
   61SOL    HW1  260   1.600   1.471   0.071
   61SOL    HW2  261   1.556   1.314   0.069
   62SOL     OW  262   0.464   1.743   0.323
   62SOL    HW1  263   0.497   1.782   0.409
   62SOL    HW2  264   0.540   1.736   0.258
   63SOL     OW  265   1.400   0.107   0.426
   63SOL    HW1  266   1.376   0.070   0.336
   63SOL    HW2  267   1.499   0.123   0.430
   64SOL     OW  268   0.249   1.785   1.241
   64SOL    HW1  269   0.306   1.720   1.291
   64SOL    HW2  270   0.233   1.752   1.148
   65SOL     OW  271   0.940   1.698   0.904
   65SOL    HW1  272   1.020   1.641   0.925
   65SOL    HW2  273   0.891   1.658   0.827
   66SOL     OW  274   0.382   0.700   0.480
   66SOL    HW1  275   0.427   0.610   0.477
   66SOL    HW2  276   0.288   0.689   0.513
   67SOL     OW  277   1.547   0.222   1.729
   67SOL    HW1  278   1.542   0.259   1.821
   67SOL    HW2  279   1.475   0.153   1.717
   68SOL     OW  280   0.614   0.122   0.117
   68SOL    HW1  281   0.712   0.100   0.124
   68SOL    HW2  282   0.583   0.105   0.024
   69SOL     OW  283   0.781   0.264   1.749
   69SOL    HW1  284   0.848   0.203   1.792
   69SOL    HW2  285   0.708   0.283   1.814
   70SOL     OW  286   0.888   1.514   1.195
   70SOL    HW1  287   0.865   1.489   1.101
   70SOL    HW2  288   0.949   1.445   1.234
   71SOL     OW  289   1.351   0.590   1.433
   71SOL    HW1  290   1.379   0.547   1.518
   71SOL    HW2  291   1.376   0.686   1.434
   72SOL     OW  292   0.803   1.402   0.924
   72SOL    HW1  293   0.893   1.416   0.882
   72SOL    HW2  294   0.732   1.404   0.853
   73SOL     OW  295   0.922   0.503   0.899
   73SOL    HW1  296   0.897   0.494   0.803
   73SOL    HW2  297   0.970   0.421   0.930
   74SOL     OW  298   0.539   0.064   0.512
   74SOL    HW1  299   0.458   0.065   0.570
   74SOL    HW2  300   0.542   0.147   0.457
   75SOL     OW  301   1.434   1.188   0.041
   75SOL    HW1  302   1.466   1.112   0.098
   75SOL    HW2  303   1.342   1.215   0.071
   76SOL     OW  304   0.297   0.035   0.171
   76SOL    HW1  305   0.346   0.119   0.150
   76SOL    HW2  306   0.359  -0.030   0.216
   77SOL     OW  307   0.935   0.236   0.480
   77SOL    HW1  308   0.887   0.277   0.402
   77SOL    HW2  309   1.034   0.234   0.461
   78SOL     OW  310   1.076   0.683   1.464
   78SOL    HW1  311   0.996   0.622   1.467
   78SOL    HW2  312   1.157   0.630   1.440
   79SOL     OW  313   1.227   1.570   0.793
   79SOL    HW1  314   1.248   1.644   0.728
   79SOL    HW2  315   1.295   1.570   0.866
   80SOL     OW  316   0.459   1.152   0.741
   80SOL    HW1  317   0.388   1.125   0.806
   80SOL    HW2  318   0.433   1.124   0.648
   81SOL     OW  319   1.271   1.797   0.591
   81SOL    HW1  320   1.315   1.861   0.527
   81SOL    HW2  321   1.221   1.849   0.661
   82SOL     OW  322   1.032   0.549   0.016
   82SOL    HW1  323   0.991   0.631  -0.023
   82SOL    HW2  324   1.096   0.575   0.089
   83SOL     OW  325   0.078   0.556   1.386
   83SOL    HW1  326   0.170   0.555   1.345
   83SOL    HW2  327   0.072   0.630   1.453
   84SOL     OW  328   0.561   0.222   1.147
   84SOL    HW1  329   0.599   0.138   1.184
   84SOL    HW2  330   0.473   0.241   1.191
   85SOL     OW  331   0.866   0.454   0.642
   85SOL    HW1  332   0.834   0.526   0.580
   85SOL    HW2  333   0.890   0.373   0.589
   86SOL     OW  334   1.017   0.039   0.753
   86SOL    HW1  335   0.945   0.044   0.684
   86SOL    HW2  336   0.993  -0.030   0.822
   87SOL     OW  337   1.429   1.173   0.867
   87SOL    HW1  338   1.374   1.089   0.860
   87SOL    HW2  339   1.455   1.202   0.775
   88SOL     OW  340   1.466   0.590   0.992
   88SOL    HW1  341   1.436   0.495   0.999
   88SOL    HW2  342   1.539   0.606   1.058
   89SOL     OW  343   1.857   0.833   0.377
   89SOL    HW1  344   1.899   0.769   0.441
   89SOL    HW2  345   1.819   0.782   0.299
   90SOL     OW  346   0.488   1.385   0.174
   90SOL    HW1  347   0.401   1.370   0.221
   90SOL    HW2  348   0.471   1.411   0.079
   91SOL     OW  349   1.664   1.280   0.657
   91SOL    HW1  350   1.763   1.288   0.671
   91SOL    HW2  351   1.619   1.364   0.688
   92SOL     OW  352   1.390   0.575   0.078
   92SOL    HW1  353   1.336   0.554   0.159
   92SOL    HW2  354   1.481   0.534   0.087
   93SOL     OW  355   0.527   0.256   0.328
   93SOL    HW1  356   0.554   0.197   0.253
   93SOL    HW2  357   0.527   0.351   0.297
   94SOL     OW  358   1.754   1.223   1.588
   94SOL    HW1  359   1.845   1.184   1.575
   94SOL    HW2  360   1.762   1.319   1.612
   95SOL     OW  361   1.064   1.347   1.340
   95SOL    HW1  362   0.984   1.324   1.395
   95SOL    HW2  363   1.147   1.321   1.389
   96SOL     OW  364   1.111   1.195   1.100
   96SOL    HW1  365   1.071   1.239   1.181
   96SOL    HW2  366   1.070   1.232   1.017
   97SOL     OW  367   1.638   1.099   1.079
   97SOL    HW1  368   1.643   1.180   1.138
   97SOL    HW2  369   1.552   1.101   1.028
   98SOL     OW  370   0.915   0.089   1.402
   98SOL    HW1  371   0.940   0.069   1.307
   98SOL    HW2  372   0.987   0.145   1.444
   99SOL     OW  373   0.980   1.116   1.719
   99SOL    HW1  374   0.881   1.122   1.729
   99SOL    HW2  375   1.003   1.036   1.663
  100SOL     OW  376   0.705   1.050   0.368
  100SOL    HW1  377   0.691   1.057   0.467
  100SOL    HW2  378   0.789   0.999   0.350
  101SOL     OW  379   0.410   0.813   1.251
  101SOL    HW1  380   0.496   0.825   1.301
  101SOL    HW2  381   0.368   0.726   1.278
  102SOL     OW  382   1.274   0.386   1.262
  102SOL    HW1  383   1.295   0.460   1.326
  102SOL    HW2  384   1.185   0.403   1.219
  103SOL     OW  385   0.064   1.564   1.331
  103SOL    HW1  386   0.018   1.646   1.297
  103SOL    HW2  387   0.162   1.583   1.340
  104SOL     OW  388   0.367   1.100   0.501
  104SOL    HW1  389   0.360   1.183   0.445
  104SOL    HW2  390   0.371   1.020   0.441
  105SOL     OW  391   0.566   0.537   0.865
  105SOL    HW1  392   0.578   0.603   0.791
  105SOL    HW2  393   0.612   0.571   0.948
  106SOL     OW  394   1.252   1.348   0.388
  106SOL    HW1  395   1.302   1.425   0.428
  106SOL    HW2  396   1.157   1.350   0.420
  107SOL     OW  397   1.272   1.445   1.142
  107SOL    HW1  398   1.319   1.458   1.229
  107SOL    HW2  399   1.206   1.371   1.151
  108SOL     OW  400   1.582   0.639   0.472
  108SOL    HW1  401   1.551   0.700   0.545
  108SOL    HW2  402   1.632   0.691   0.403
  109SOL     OW  403   0.354   1.510   1.329
  109SOL    HW1  404   0.333   1.466   1.242
  109SOL    HW2  405   0.451   1.536   1.332
  110SOL     OW  406   0.402   0.751   1.598
  110SOL    HW1  407   0.470   0.806   1.551
  110SOL    HW2  408   0.442   0.663   1.625
  111SOL     OW  409   1.587   0.779   1.670
  111SOL    HW1  410   1.495   0.817   1.665
  111SOL    HW2  411   1.647   0.826   1.605
  112SOL     OW  412   1.013   0.105   1.770
  112SOL    HW1  413   1.019   0.190   1.718
  112SOL    HW2  414   1.045   0.029   1.713
  113SOL     OW  415   0.504   0.050   1.740
  113SOL    HW1  416   0.462  -0.007   1.670
  113SOL    HW2  417   0.438   0.119   1.772
  114SOL     OW  418   0.573   0.870   1.029
  114SOL    HW1  419   0.617   0.959   1.020
  114SOL    HW2  420   0.510   0.870   1.106
  115SOL     OW  421   1.360   0.862   1.045
  115SOL    HW1  422   1.285   0.862   0.979
  115SOL    HW2  423   1.397   0.770   1.054
  116SOL     OW  424   1.209   0.525   0.275
  116SOL    HW1  425   1.222   0.441   0.329
  116SOL    HW2  426   1.180   0.599   0.335
  117SOL     OW  427   0.307   0.213   1.231
  117SOL    HW1  428   0.284   0.250   1.321
  117SOL    HW2  429   0.277   0.118   1.225
  118SOL     OW  430   0.037   1.310   1.282
  118SOL    HW1  431   0.090   1.261   1.350
  118SOL    HW2  432   0.059   1.408   1.287
  119SOL     OW  433   0.732   0.634   1.064
  119SOL    HW1  434   0.791   0.608   0.988
  119SOL    HW2  435   0.704   0.730   1.053
  120SOL     OW  436   1.728   0.935   1.854
  120SOL    HW1  437   1.682   0.928   1.765
  120SOL    HW2  438   1.666   0.979   1.920
  121SOL     OW  439   0.307   0.063   0.618
  121SOL    HW1  440   0.296   0.157   0.651
  121SOL    HW2  441   0.302   0.000   0.695
  122SOL     OW  442   1.622   0.367   0.374
  122SOL    HW1  443   1.624   0.291   0.438
  122SOL    HW2  444   1.574   0.444   0.414
  123SOL     OW  445   1.023   0.766   0.966
  123SOL    HW1  446   1.038   0.787   1.062
  123SOL    HW2  447   0.993   0.671   0.957
  124SOL     OW  448   0.980   1.573   1.700
  124SOL    HW1  449   0.960   1.617   1.612
  124SOL    HW2  450   1.019   1.482   1.684
  125SOL     OW  451   0.350   0.898   1.804
  125SOL    HW1  452   0.426   0.942   1.852
  125SOL    HW2  453   0.385   0.851   1.722
  126SOL     OW  454   1.540   0.274   0.125
  126SOL    HW1  455   1.479   0.199   0.148
  126SOL    HW2  456   1.562   0.326   0.208
  127SOL     OW  457   1.303   0.838   0.042
  127SOL    HW1  458   1.337   0.745   0.057
  127SOL    HW2  459   1.321   0.865  -0.053
  128SOL     OW  460   1.068   1.333   0.849
  128SOL    HW1  461   1.075   1.249   0.794
  128SOL    HW2  462   1.130   1.402   0.813
  129SOL     OW  463   0.319   0.810   0.949
  129SOL    HW1  464   0.412   0.846   0.954
  129SOL    HW2  465   0.313   0.725   1.001
  130SOL     OW  466   0.339   0.509   1.006
  130SOL    HW1  467   0.287   0.426   0.989
  130SOL    HW2  468   0.416   0.514   0.942
  131SOL     OW  469   1.138   0.380   1.678
  131SOL    HW1  470   1.093   0.443   1.742
  131SOL    HW2  471   1.231   0.411   1.661
  132SOL     OW  472   1.160   0.207   1.477
  132SOL    HW1  473   1.160   0.271   1.554
  132SOL    HW2  474   1.188   0.255   1.394
  133SOL     OW  475   0.008   1.326   0.200
  133SOL    HW1  476  -0.085   1.347   0.169
  133SOL    HW2  477   0.018   1.227   0.213
  134SOL     OW  478   0.088   1.801   0.927
  134SOL    HW1  479   0.046   1.715   0.900
  134SOL    HW2  480   0.182   1.804   0.893
  135SOL     OW  481   0.504   1.568   0.910
  135SOL    HW1  482   0.570   1.642   0.919
  135SOL    HW2  483   0.548   1.489   0.868
  136SOL     OW  484   1.002   0.796   1.238
  136SOL    HW1  485   1.043   0.764   1.324
  136SOL    HW2  486   0.906   0.769   1.235
  137SOL     OW  487   0.040   0.544   1.114
  137SOL    HW1  488   0.125   0.511   1.073
  137SOL    HW2  489   0.053   0.559   1.212
  138SOL     OW  490   0.189   0.520   1.722
  138SOL    HW1  491   0.248   0.480   1.652
  138SOL    HW2  492   0.131   0.591   1.681
  139SOL     OW  493   1.369   0.950   1.660
  139SOL    HW1  494   1.408   1.039   1.680
  139SOL    HW2  495   1.379   0.930   1.563
  140SOL     OW  496   0.815   0.572   0.325
  140SOL    HW1  497   0.822   0.483   0.279
  140SOL    HW2  498   0.721   0.606   0.317
  141SOL     OW  499   1.657   0.604   1.206
  141SOL    HW1  500   1.619   0.535   1.268
  141SOL    HW2  501   1.739   0.568   1.162
  142SOL     OW  502   0.252   1.564   1.744
  142SOL    HW1  503   0.222   1.621   1.820
  142SOL    HW2  504   0.245   1.467   1.770
  143SOL     OW  505   0.671   0.464   1.269
  143SOL    HW1  506   0.637   0.375   1.239
  143SOL    HW2  507   0.697   0.518   1.189
  144SOL     OW  508   0.930   1.678   1.465
  144SOL    HW1  509   0.906   1.660   1.370
  144SOL    HW2  510   0.960   1.772   1.475
  145SOL     OW  511   0.473   0.500   0.191
  145SOL    HW1  512   0.534   0.580   0.195
  145SOL    HW2  513   0.378   0.531   0.198
  146SOL     OW  514   0.159   1.137   1.466
  146SOL    HW1  515   0.181   1.076   1.542
  146SOL    HW2  516   0.169   1.088   1.380
  147SOL     OW  517   1.347   1.059   1.234
  147SOL    HW1  518   1.371   0.996   1.160
  147SOL    HW2  519   1.257   1.099   1.216
  148SOL     OW  520   1.302   0.855   0.309
  148SOL    HW1  521   1.216   0.824   0.351
  148SOL    HW2  522   1.298   0.841   0.210
  149SOL     OW  523   1.252   1.731   1.128
  149SOL    HW1  524   1.336   1.736   1.074
  149SOL    HW2  525   1.229   1.635   1.146
  150SOL     OW  526   0.083   1.258   1.022
  150SOL    HW1  527   0.078   1.257   1.122
  150SOL    HW2  528   0.000   1.217   0.984
  151SOL     OW  529   0.688   1.662   1.716
  151SOL    HW1  530   0.632   1.743   1.725
  151SOL    HW2  531   0.740   1.666   1.630
  152SOL     OW  532   0.903   0.086   0.133
  152SOL    HW1  533   0.954   0.087   0.047
  152SOL    HW2  534   0.959   0.044   0.204
  153SOL     OW  535   1.726   0.135   0.523
  153SOL    HW1  536   1.799   0.118   0.456
  153SOL    HW2  537   1.695   0.048   0.561
  154SOL     OW  538   1.388   1.573   0.477
  154SOL    HW1  539   1.455   1.585   0.403
  154SOL    HW2  540   1.348   1.662   0.500
  155SOL     OW  541   0.130   1.794   1.851
  155SOL    HW1  542   0.089   1.720   1.904
  155SOL    HW2  543   0.194   1.845   1.909
  156SOL     OW  544   1.280   0.927   0.672
  156SOL    HW1  545   1.340   0.846   0.674
  156SOL    HW2  546   1.320   0.996   0.612
  157SOL     OW  547   0.830   1.273   1.422
  157SOL    HW1  548   0.825   1.306   1.517
  157SOL    HW2  549   0.744   1.292   1.376
  158SOL     OW  550   0.672   1.616   0.154
  158SOL    HW1  551   0.681   1.626   0.055
  158SOL    HW2  552   0.632   1.527   0.175
  159SOL     OW  553   1.841   0.175   0.963
  159SOL    HW1  554   1.880   0.090   0.927
  159SOL    HW2  555   1.743   0.177   0.944
  160SOL     OW  556   0.263   0.326   0.720
  160SOL    HW1  557   0.184   0.377   0.686
  160SOL    HW2  558   0.254   0.311   0.818
  161SOL     OW  559   1.194   1.612   0.031
  161SOL    HW1  560   1.200   1.519   0.068
  161SOL    HW2  561   1.135   1.612  -0.049
  162SOL     OW  562   0.822   1.002   1.372
  162SOL    HW1  563   0.862   1.001   1.280
  162SOL    HW2  564   0.832   1.094   1.412
  163SOL     OW  565   0.916   0.910   0.291
  163SOL    HW1  566   0.979   0.948   0.223
  163SOL    HW2  567   0.956   0.827   0.330
  164SOL     OW  568   1.504   1.607   0.044
  164SOL    HW1  569   1.412   1.644   0.051
  164SOL    HW2  570   1.542   1.627  -0.046
  165SOL     OW  571   0.372   1.288   1.490
  165SOL    HW1  572   0.359   1.381   1.456
  165SOL    HW2  573   0.288   1.236   1.477
  166SOL     OW  574   1.614   1.292   1.289
  166SOL    HW1  575   1.674   1.295   1.369
  166SOL    HW2  576   1.539   1.356   1.302
  167SOL     OW  577   1.039   1.098   0.696
  167SOL    HW1  578   0.969   1.051   0.750
  167SOL    HW2  579   1.098   1.030   0.653
  168SOL     OW  580   1.014   0.236   0.971
  168SOL    HW1  581   1.006   0.200   0.878
  168SOL    HW2  582   1.012   0.160   1.036
  169SOL     OW  583   0.590   1.487   0.491
  169SOL    HW1  584   0.632   1.429   0.421
  169SOL    HW2  585   0.546   1.566   0.447
  170SOL     OW  586   1.709   0.385   1.381
  170SOL    HW1  587   1.782   0.454   1.385
  170SOL    HW2  588   1.737   0.310   1.322
  171SOL     OW  589   0.255   1.348   0.290
  171SOL    HW1  590   0.159   1.349   0.263
  171SOL    HW2  591   0.267   1.401   0.374
  172SOL     OW  592   0.105   1.013   1.726
  172SOL    HW1  593   0.028   0.980   1.780
  172SOL    HW2  594   0.190   0.983   1.768
  173SOL     OW  595   0.672   0.203   1.489
  173SOL    HW1  596   0.762   0.187   1.449
  173SOL    HW2  597   0.680   0.208   1.588
  174SOL     OW  598   0.075   0.345   0.033
  174SOL    HW1  599  -0.017   0.317   0.004
  174SOL    HW2  600   0.106   0.422  -0.023
  175SOL     OW  601   1.440   0.856   1.398
  175SOL    HW1  602   1.383   0.908   1.335
  175SOL    HW2  603   1.536   0.868   1.374
  176SOL     OW  604   0.072   0.166   0.318
  176SOL    HW1  605   0.055   0.249   0.264
  176SOL    HW2  606   0.162   0.129   0.296
  177SOL     OW  607   1.183   1.335   0.119
  177SOL    HW1  608   1.084   1.324   0.121
  177SOL    HW2  609   1.217   1.350   0.212
  178SOL     OW  610   0.613   0.842   1.431
  178SOL    HW1  611   0.669   0.923   1.414
  178SOL    HW2  612   0.672   0.762   1.434
  179SOL     OW  613   1.493   1.767   0.959
  179SOL    HW1  614   1.526   1.831   0.890
  179SOL    HW2  615   1.559   1.761   1.034
  180SOL     OW  616   0.716   0.565   1.708
  180SOL    HW1  617   0.735   0.630   1.782
  180SOL    HW2  618   0.776   0.485   1.717
  181SOL     OW  619   1.450   1.220   1.633
  181SOL    HW1  620   1.441   1.210   1.732
  181SOL    HW2  621   1.546   1.213   1.607
  182SOL     OW  622   0.390   1.741   1.560
  182SOL    HW1  623   0.299   1.782   1.558
  182SOL    HW2  624   0.383   1.647   1.592
  183SOL     OW  625   1.674   0.883   1.254
  183SOL    HW1  626   1.647   0.794   1.217
  183SOL    HW2  627   1.675   0.951   1.181
  184SOL     OW  628   1.225   0.325   0.449
  184SOL    HW1  629   1.290   0.251   0.438
  184SOL    HW2  630   1.245   0.375   0.533
  185SOL     OW  631   0.594   0.745   0.652
  185SOL    HW1  632   0.644   0.830   0.633
  185SOL    HW2  633   0.506   0.747   0.604
  186SOL     OW  634   1.777   0.342   1.642
  186SOL    HW1  635   1.760   0.373   1.548
  186SOL    HW2  636   1.693   0.305   1.680
  187SOL     OW  637   1.730   0.934   1.517
  187SOL    HW1  638   1.768   1.025   1.532
  187SOL    HW2  639   1.722   0.917   1.418
  188SOL     OW  640   0.859   1.374   0.016
  188SOL    HW1  641   0.813   1.389   0.104
  188SOL    HW2  642   0.903   1.459  -0.014
  189SOL     OW  643   0.661   1.790   0.953
  189SOL    HW1  644   0.615   1.878   0.940
  189SOL    HW2  645   0.760   1.802   0.946
  190SOL     OW  646   0.859   0.956   0.861
  190SOL    HW1  647   0.913   0.887   0.909
  190SOL    HW2  648   0.827   1.025   0.927
  191SOL     OW  649   1.083   0.984   0.087
  191SOL    HW1  650   1.060   1.037   0.005
  191SOL    HW2  651   1.164   0.928   0.068
  192SOL     OW  652   1.861   1.569   0.851
  192SOL    HW1  653   1.790   1.557   0.781
  192SOL    HW2  654   1.862   1.490   0.911
  193SOL     OW  655   0.221   1.314   1.844
  193SOL    HW1  656   0.156   1.241   1.823
  193SOL    HW2  657   0.225   1.328   1.942
  194SOL     OW  658   0.079   1.240   0.653
  194SOL    HW1  659   0.078   1.193   0.741
  194SOL    HW2  660   0.161   1.212   0.602
  195SOL     OW  661   0.672   1.391   1.624
  195SOL    HW1  662   0.594   1.341   1.662
  195SOL    HW2  663   0.669   1.486   1.655
  196SOL     OW  664   1.824   0.192   1.227
  196SOL    HW1  665   1.820   0.102   1.271
  196SOL    HW2  666   1.827   0.181   1.128
  197SOL     OW  667   0.428   0.424   0.520
  197SOL    HW1  668   0.458   0.352   0.458
  197SOL    HW2  669   0.389   0.384   0.603
  198SOL     OW  670   1.705   1.487   1.104
  198SOL    HW1  671   1.612   1.462   1.077
  198SOL    HW2  672   1.731   1.437   1.186
  199SOL     OW  673   0.317   0.547   1.280
  199SOL    HW1  674   0.355   0.488   1.352
  199SOL    HW2  675   0.357   0.521   1.192
  200SOL     OW  676   0.812   1.586   0.687
  200SOL    HW1  677   0.844   1.596   0.593
  200SOL    HW2  678   0.733   1.524   0.689
  201SOL     OW  679   1.424   0.214   1.112
  201SOL    HW1  680   1.476   0.149   1.167
  201SOL    HW2  681   1.375   0.277   1.173
  202SOL     OW  682   1.001   0.034   1.154
  202SOL    HW1  683   0.938  -0.038   1.123
  202SOL    HW2  684   1.094  -0.002   1.154
  203SOL     OW  685   0.770   1.330   0.301
  203SOL    HW1  686   0.724   1.243   0.318
  203SOL    HW2  687   0.861   1.327   0.342
  204SOL     OW  688   0.618   1.567   1.284
  204SOL    HW1  689   0.613   1.649   1.341
  204SOL    HW2  690   0.707   1.564   1.239
  205SOL     OW  691   1.352   0.052   0.168
  205SOL    HW1  692   1.387   0.011   0.084
  205SOL    HW2  693   1.262   0.014   0.188
  206SOL     OW  694   1.300   0.453   0.691
  206SOL    HW1  695   1.241   0.533   0.695
  206SOL    HW2  696   1.315   0.418   0.784
  207SOL     OW  697   1.593   0.221   0.882
  207SOL    HW1  698   1.509   0.220   0.936
  207SOL    HW2  699   1.595   0.304   0.826
  208SOL     OW  700   0.039   1.077   0.300
  208SOL    HW1  701   0.138   1.066   0.291
  208SOL    HW2  702  -0.001   0.991   0.332
  209SOL     OW  703   0.875   1.646   0.337
  209SOL    HW1  704   0.798   1.611   0.283
  209SOL    HW2  705   0.843   1.717   0.399
  210SOL     OW  706   0.230   0.628   1.975
  210SOL    HW1  707   0.137   0.626   2.012
  210SOL    HW2  708   0.231   0.589   1.883
  211SOL     OW  709   0.225   0.275   2.858
  211SOL    HW1  710   0.260   0.258   2.950
  211SOL    HW2  711   0.137   0.230   2.846
  212SOL     OW  712   0.019   0.368   2.509
  212SOL    HW1  713  -0.063   0.411   2.548
  212SOL    HW2  714  -0.009   0.295   2.446
  213SOL     OW  715   0.569   1.275   3.027
  213SOL    HW1  716   0.476   1.268   2.990
  213SOL    HW2  717   0.580   1.364   3.071
  214SOL     OW  718   1.555   1.511   2.565
  214SOL    HW1  719   1.498   1.495   2.646
  214SOL    HW2  720   1.496   1.521   2.485
  215SOL     OW  721   1.135   0.703   2.579
  215SOL    HW1  722   1.192   0.781   2.554
  215SOL    HW2  723   1.075   0.729   2.655
  216SOL     OW  724   1.755   0.607   2.093
  216SOL    HW1  725   1.743   0.594   1.994
  216SOL    HW2  726   1.725   0.526   2.142
  217SOL     OW  727   0.768   1.144   2.885
  217SOL    HW1  728   0.690   1.161   2.945
  217SOL    HW2  729   0.802   1.231   2.849
  218SOL     OW  730   0.685   1.012   2.527
  218SOL    HW1  731   0.754   0.996   2.597
  218SOL    HW2  732   0.612   1.069   2.565
  219SOL     OW  733   0.335   1.435   2.923
  219SOL    HW1  734   0.257   1.404   2.870
  219SOL    HW2  735   0.393   1.493   2.866
  220SOL     OW  736   1.460   1.505   3.201
  220SOL    HW1  737   1.484   1.599   3.227
  220SOL    HW2  738   1.444   1.451   3.283
  221SOL     OW  739   0.438   0.392   3.361
  221SOL    HW1  740   0.520   0.336   3.370
  221SOL    HW2  741   0.357   0.334   3.365
  222SOL     OW  742   1.603   0.447   2.599
  222SOL    HW1  743   1.529   0.493   2.549
  222SOL    HW2  744   1.654   0.515   2.652
  223SOL     OW  745   0.231   1.713   2.345
  223SOL    HW1  746   0.265   1.790   2.399
  223SOL    HW2  747   0.275   1.713   2.255
  224SOL     OW  748   0.230   1.434   2.400
  224SOL    HW1  749   0.204   1.530   2.400
  224SOL    HW2  750   0.159   1.380   2.445
  225SOL     OW  751   0.240   1.091   2.748
  225SOL    HW1  752   0.254   1.007   2.800
  225SOL    HW2  753   0.185   1.155   2.803
  226SOL     OW  754   0.620   1.786   3.301
  226SOL    HW1  755   0.528   1.769   3.336
  226SOL    HW2  756   0.648   1.878   3.327
  227SOL     OW  757   0.606   0.964   1.985
  227SOL    HW1  758   0.613   1.048   1.931
  227SOL    HW2  759   0.652   0.977   2.073
  228SOL     OW  760   1.594   0.114   3.342
  228SOL    HW1  761   1.576   0.181   3.270
  228SOL    HW2  762   1.591   0.160   3.431
  229SOL     OW  763   0.122   0.643   2.425
  229SOL    HW1  764   0.077   0.555   2.442
  229SOL    HW2  765   0.121   0.697   2.509
  230SOL     OW  766   0.027   1.596   1.979
  230SOL    HW1  767   0.008   1.500   2.000
  230SOL    HW2  768  -0.006   1.654   2.054
  231SOL     OW  769   1.689   0.922   2.474
  231SOL    HW1  770   1.784   0.893   2.482
  231SOL    HW2  771   1.681   0.987   2.399
  232SOL     OW  772   1.641   1.108   2.294
  232SOL    HW1  773   1.727   1.110   2.242
  232SOL    HW2  774   1.655   1.155   2.382
  233SOL     OW  775   0.613   1.365   2.588
  233SOL    HW1  776   0.564   1.278   2.597
  233SOL    HW2  777   0.590   1.408   2.501
  234SOL     OW  778   1.293   1.228   3.285
  234SOL    HW1  779   1.330   1.155   3.227
  234SOL    HW2  780   1.345   1.233   3.370
  235SOL     OW  781   0.809   0.004   2.364
  235SOL    HW1  782   0.849   0.095   2.355
  235SOL    HW2  783   0.709   0.012   2.370
  236SOL     OW  784   0.197   0.976   3.126
  236SOL    HW1  785   0.286   0.931   3.112
  236SOL    HW2  786   0.124   0.911   3.107
  237SOL     OW  787   1.525   0.999   2.052
  237SOL    HW1  788   1.462   0.923   2.065
  237SOL    HW2  789   1.573   1.017   2.138
  238SOL     OW  790   1.466   1.417   2.815
  238SOL    HW1  791   1.407   1.423   2.895
  238SOL    HW2  792   1.451   1.329   2.769
  239SOL     OW  793   0.598   0.729   2.132
  239SOL    HW1  794   0.622   0.798   2.064
  239SOL    HW2  795   0.520   0.762   2.186
  240SOL     OW  796   1.281   0.345   2.806
  240SOL    HW1  797   1.195   0.295   2.793
  240SOL    HW2  798   1.343   0.291   2.862
  241SOL     OW  799   0.807   0.605   3.327
  241SOL    HW1  800   0.760   0.602   3.416
  241SOL    HW2  801   0.756   0.550   3.261
  242SOL     OW  802   0.973   0.890   3.434
  242SOL    HW1  803   1.019   0.806   3.405
  242SOL    HW2  804   0.917   0.924   3.359
  243SOL     OW  805   0.991   0.410   3.104
  243SOL    HW1  806   0.914   0.444   3.158
  243SOL    HW2  807   0.957   0.359   3.025
  244SOL     OW  808   1.041   0.701   2.291
  244SOL    HW1  809   1.067   0.697   2.387
  244SOL    HW2  810   0.956   0.650   2.277
  245SOL     OW  811   0.076   0.811   2.651
  245SOL    HW1  812   0.175   0.799   2.660
  245SOL    HW2  813   0.052   0.906   2.672
  246SOL     OW  814   0.130   1.821   3.433
  246SOL    HW1  815   0.120   1.806   3.532
  246SOL    HW2  816   0.044   1.857   3.397
  247SOL     OW  817   0.865   0.348   2.057
  247SOL    HW1  818   0.924   0.411   2.008
  247SOL    HW2  819   0.884   0.254   2.028
  248SOL     OW  820   1.362   1.144   2.407
  248SOL    HW1  821   1.445   1.115   2.359
  248SOL    HW2  822   1.313   1.211   2.351
  249SOL     OW  823   0.550   0.196   2.747
  249SOL    HW1  824   0.545   0.191   2.847
  249SOL    HW2  825   0.552   0.292   2.718
  250SOL     OW  826   1.008   1.456   2.339
  250SOL    HW1  827   0.962   1.528   2.287
  250SOL    HW2  828   1.004   1.476   2.437
  251SOL     OW  829   0.351   1.801   2.715
  251SOL    HW1  830   0.401   1.715   2.721
  251SOL    HW2  831   0.416   1.878   2.712
  252SOL     OW  832   1.795   1.066   2.735
  252SOL    HW1  833   1.733   1.051   2.659
  252SOL    HW2  834   1.743   1.077   2.820
  253SOL     OW  835   0.321   0.943   2.104
  253SOL    HW1  836   0.403   0.982   2.062
  253SOL    HW2  837   0.294   0.861   2.055
  254SOL     OW  838   1.458   0.735   2.590
  254SOL    HW1  839   1.453   0.670   2.665
  254SOL    HW2  840   1.538   0.794   2.603
  255SOL     OW  841   1.111   1.776   2.099
  255SOL    HW1  842   1.051   1.714   2.149
  255SOL    HW2  843   1.142   1.732   2.014
  256SOL     OW  844   1.632   1.377   1.943
  256SOL    HW1  845   1.600   1.471   1.933
  256SOL    HW2  846   1.556   1.314   1.931
  257SOL     OW  847   0.464   1.743   2.185
  257SOL    HW1  848   0.497   1.782   2.271
  257SOL    HW2  849   0.540   1.736   2.120
  258SOL     OW  850   1.400   0.107   2.288
  258SOL    HW1  851   1.376   0.070   2.198
  258SOL    HW2  852   1.499   0.123   2.292
  259SOL     OW  853   0.249   1.785   3.103
  259SOL    HW1  854   0.306   1.720   3.153
  259SOL    HW2  855   0.233   1.752   3.010
  260SOL     OW  856   0.940   1.698   2.766
  260SOL    HW1  857   1.020   1.641   2.787
  260SOL    HW2  858   0.891   1.658   2.689
  261SOL     OW  859   0.382   0.700   2.342
  261SOL    HW1  860   0.427   0.610   2.339
  261SOL    HW2  861   0.288   0.689   2.375
  262SOL     OW  862   0.614   0.122   1.979
  262SOL    HW1  863   0.712   0.100   1.986
  262SOL    HW2  864   0.583   0.105   1.886
  263SOL     OW  865   0.888   1.514   3.057
  263SOL    HW1  866   0.865   1.489   2.963
  263SOL    HW2  867   0.949   1.445   3.096
  264SOL     OW  868   1.351   0.590   3.295
  264SOL    HW1  869   1.379   0.547   3.380
  264SOL    HW2  870   1.376   0.686   3.296
  265SOL     OW  871   0.803   1.402   2.786
  265SOL    HW1  872   0.893   1.416   2.744
  265SOL    HW2  873   0.732   1.404   2.715
  266SOL     OW  874   0.922   0.503   2.761
  266SOL    HW1  875   0.897   0.494   2.665
  266SOL    HW2  876   0.970   0.421   2.792
  267SOL     OW  877   0.539   0.064   2.374
  267SOL    HW1  878   0.458   0.065   2.432
  267SOL    HW2  879   0.542   0.147   2.319
  268SOL     OW  880   1.434   1.188   1.903
  268SOL    HW1  881   1.466   1.112   1.960
  268SOL    HW2  882   1.342   1.215   1.933
  269SOL     OW  883   0.297   0.035   2.033
  269SOL    HW1  884   0.346   0.119   2.012
  269SOL    HW2  885   0.359  -0.030   2.078
  270SOL     OW  886   0.935   0.236   2.342
  270SOL    HW1  887   0.887   0.277   2.264
  270SOL    HW2  888   1.034   0.234   2.323
  271SOL     OW  889   1.227   1.570   2.655
  271SOL    HW1  890   1.248   1.644   2.590
  271SOL    HW2  891   1.295   1.570   2.728
  272SOL     OW  892   0.459   1.152   2.603
  272SOL    HW1  893   0.388   1.125   2.668
  272SOL    HW2  894   0.433   1.124   2.510
  273SOL     OW  895   1.271   1.797   2.453
  273SOL    HW1  896   1.315   1.861   2.389
  273SOL    HW2  897   1.221   1.849   2.523
  274SOL     OW  898   1.032   0.549   1.878
  274SOL    HW1  899   0.991   0.631   1.839
  274SOL    HW2  900   1.096   0.575   1.951
  275SOL     OW  901   0.078   0.556   3.248
  275SOL    HW1  902   0.170   0.555   3.207
  275SOL    HW2  903   0.072   0.630   3.315
  276SOL     OW  904   0.561   0.222   3.009
  276SOL    HW1  905   0.599   0.138   3.046
  276SOL    HW2  906   0.473   0.241   3.053
  277SOL     OW  907   0.866   0.454   2.504
  277SOL    HW1  908   0.834   0.526   2.442
  277SOL    HW2  909   0.890   0.373   2.451
  278SOL     OW  910   1.017   0.039   2.615
  278SOL    HW1  911   0.945   0.044   2.546
  278SOL    HW2  912   0.993  -0.030   2.684
  279SOL     OW  913   1.429   1.173   2.729
  279SOL    HW1  914   1.374   1.089   2.722
  279SOL    HW2  915   1.455   1.202   2.637
  280SOL     OW  916   1.466   0.590   2.854
  280SOL    HW1  917   1.436   0.495   2.861
  280SOL    HW2  918   1.539   0.606   2.920
  281SOL     OW  919   1.857   0.833   2.239
  281SOL    HW1  920   1.899   0.769   2.303
  281SOL    HW2  921   1.819   0.782   2.161
  282SOL     OW  922   0.488   1.385   2.036
  282SOL    HW1  923   0.401   1.370   2.083
  282SOL    HW2  924   0.471   1.411   1.941
  283SOL     OW  925   1.664   1.280   2.519
  283SOL    HW1  926   1.763   1.288   2.533
  283SOL    HW2  927   1.619   1.364   2.550
  284SOL     OW  928   1.390   0.575   1.940
  284SOL    HW1  929   1.336   0.554   2.021
  284SOL    HW2  930   1.481   0.534   1.949
  285SOL     OW  931   0.527   0.256   2.190
  285SOL    HW1  932   0.554   0.197   2.115
  285SOL    HW2  933   0.527   0.351   2.159
  286SOL     OW  934   1.754   1.223   3.450
  286SOL    HW1  935   1.845   1.184   3.437
  286SOL    HW2  936   1.762   1.319   3.474
  287SOL     OW  937   1.064   1.347   3.202
  287SOL    HW1  938   0.984   1.324   3.257
  287SOL    HW2  939   1.147   1.321   3.251
  288SOL     OW  940   1.111   1.195   2.962
  288SOL    HW1  941   1.071   1.239   3.043
  288SOL    HW2  942   1.070   1.232   2.879
  289SOL     OW  943   1.638   1.099   2.941
  289SOL    HW1  944   1.643   1.180   3.000
  289SOL    HW2  945   1.552   1.101   2.890
  290SOL     OW  946   0.915   0.089   3.264
  290SOL    HW1  947   0.940   0.069   3.169
  290SOL    HW2  948   0.987   0.145   3.306
  291SOL     OW  949   0.705   1.050   2.230
  291SOL    HW1  950   0.691   1.057   2.329
  291SOL    HW2  951   0.789   0.999   2.212
  292SOL     OW  952   0.410   0.813   3.113
  292SOL    HW1  953   0.496   0.825   3.163
  292SOL    HW2  954   0.368   0.726   3.140
  293SOL     OW  955   1.274   0.386   3.124
  293SOL    HW1  956   1.295   0.460   3.188
  293SOL    HW2  957   1.185   0.403   3.081
  294SOL     OW  958   0.064   1.564   3.193
  294SOL    HW1  959   0.018   1.646   3.159
  294SOL    HW2  960   0.162   1.583   3.202
  295SOL     OW  961   0.367   1.100   2.363
  295SOL    HW1  962   0.360   1.183   2.307
  295SOL    HW2  963   0.371   1.020   2.303
  296SOL     OW  964   0.566   0.537   2.727
  296SOL    HW1  965   0.578   0.603   2.653
  296SOL    HW2  966   0.612   0.571   2.810
  297SOL     OW  967   1.252   1.348   2.250
  297SOL    HW1  968   1.302   1.425   2.290
  297SOL    HW2  969   1.157   1.350   2.282
  298SOL     OW  970   1.272   1.445   3.004
  298SOL    HW1  971   1.319   1.458   3.091
  298SOL    HW2  972   1.206   1.371   3.013
  299SOL     OW  973   1.582   0.639   2.334
  299SOL    HW1  974   1.551   0.700   2.407
  299SOL    HW2  975   1.632   0.691   2.265
  300SOL     OW  976   0.354   1.510   3.191
  300SOL    HW1  977   0.333   1.466   3.104
  300SOL    HW2  978   0.451   1.536   3.194
  301SOL     OW  979   0.402   0.751   3.460
  301SOL    HW1  980   0.470   0.806   3.413
  301SOL    HW2  981   0.442   0.663   3.487
  302SOL     OW  982   1.587   0.779   3.532
  302SOL    HW1  983   1.495   0.817   3.527
  302SOL    HW2  984   1.647   0.826   3.467
  303SOL     OW  985   0.573   0.870   2.891
  303SOL    HW1  986   0.617   0.959   2.882
  303SOL    HW2  987   0.510   0.870   2.968
  304SOL     OW  988   1.360   0.862   2.907
  304SOL    HW1  989   1.285   0.862   2.841
  304SOL    HW2  990   1.397   0.770   2.916
  305SOL     OW  991   1.209   0.525   2.137
  305SOL    HW1  992   1.222   0.441   2.191
  305SOL    HW2  993   1.180   0.599   2.197
  306SOL     OW  994   0.307   0.213   3.093
  306SOL    HW1  995   0.284   0.250   3.183
  306SOL    HW2  996   0.277   0.118   3.087
  307SOL     OW  997   0.037   1.310   3.144
  307SOL    HW1  998   0.090   1.261   3.212
  307SOL    HW2  999   0.059   1.408   3.149
  308SOL     OW 1000   0.732   0.634   2.926
  308SOL    HW1 1001   0.791   0.608   2.850
  308SOL    HW2 1002   0.704   0.730   2.915
  309SOL     OW 1003   0.307   0.063   2.480
  309SOL    HW1 1004   0.296   0.157   2.513
  309SOL    HW2 1005   0.302   0.000   2.557
  310SOL     OW 1006   1.622   0.367   2.236
  310SOL    HW1 1007   1.624   0.291   2.300
  310SOL    HW2 1008   1.574   0.444   2.276
  311SOL     OW 1009   1.023   0.766   2.828
  311SOL    HW1 1010   1.038   0.787   2.924
  311SOL    HW2 1011   0.993   0.671   2.819
  312SOL     OW 1012   0.980   1.573   3.562
  312SOL    HW1 1013   0.960   1.617   3.474
  312SOL    HW2 1014   1.019   1.482   3.546
  313SOL     OW 1015   1.540   0.274   1.987
  313SOL    HW1 1016   1.479   0.199   2.010
  313SOL    HW2 1017   1.562   0.326   2.070
  314SOL     OW 1018   1.303   0.838   1.904
  314SOL    HW1 1019   1.337   0.745   1.919
  314SOL    HW2 1020   1.321   0.865   1.809
  315SOL     OW 1021   1.068   1.333   2.711
  315SOL    HW1 1022   1.075   1.249   2.656
  315SOL    HW2 1023   1.130   1.402   2.675
  316SOL     OW 1024   0.319   0.810   2.811
  316SOL    HW1 1025   0.412   0.846   2.816
  316SOL    HW2 1026   0.313   0.725   2.863
  317SOL     OW 1027   0.339   0.509   2.868
  317SOL    HW1 1028   0.287   0.426   2.851
  317SOL    HW2 1029   0.416   0.514   2.804
  318SOL     OW 1030   1.138   0.380   3.540
  318SOL    HW1 1031   1.093   0.443   3.604
  318SOL    HW2 1032   1.231   0.411   3.523
  319SOL     OW 1033   1.160   0.207   3.339
  319SOL    HW1 1034   1.160   0.271   3.416
  319SOL    HW2 1035   1.188   0.255   3.256
  320SOL     OW 1036   0.008   1.326   2.062
  320SOL    HW1 1037  -0.085   1.347   2.031
  320SOL    HW2 1038   0.018   1.227   2.075
  321SOL     OW 1039   0.088   1.801   2.789
  321SOL    HW1 1040   0.046   1.715   2.762
  321SOL    HW2 1041   0.182   1.804   2.755
  322SOL     OW 1042   0.504   1.568   2.772
  322SOL    HW1 1043   0.570   1.642   2.781
  322SOL    HW2 1044   0.548   1.489   2.730
  323SOL     OW 1045   1.002   0.796   3.100
  323SOL    HW1 1046   1.043   0.764   3.186
  323SOL    HW2 1047   0.906   0.769   3.097
  324SOL     OW 1048   0.040   0.544   2.976
  324SOL    HW1 1049   0.125   0.511   2.935
  324SOL    HW2 1050   0.053   0.559   3.074
  325SOL     OW 1051   0.815   0.572   2.187
  325SOL    HW1 1052   0.822   0.483   2.141
  325SOL    HW2 1053   0.721   0.606   2.179
  326SOL     OW 1054   1.657   0.604   3.068
  326SOL    HW1 1055   1.619   0.535   3.130
  326SOL    HW2 1056   1.739   0.568   3.024
  327SOL     OW 1057   0.252   1.564   3.606
  327SOL    HW1 1058   0.222   1.621   3.682
  327SOL    HW2 1059   0.245   1.467   3.632
  328SOL     OW 1060   0.671   0.464   3.131
  328SOL    HW1 1061   0.637   0.375   3.101
  328SOL    HW2 1062   0.697   0.518   3.051
  329SOL     OW 1063   0.930   1.678   3.327
  329SOL    HW1 1064   0.906   1.660   3.232
  329SOL    HW2 1065   0.960   1.772   3.337
  330SOL     OW 1066   0.473   0.500   2.053
  330SOL    HW1 1067   0.534   0.580   2.057
  330SOL    HW2 1068   0.378   0.531   2.060
  331SOL     OW 1069   0.159   1.137   3.328
  331SOL    HW1 1070   0.181   1.076   3.404
  331SOL    HW2 1071   0.169   1.088   3.242
  332SOL     OW 1072   1.347   1.059   3.096
  332SOL    HW1 1073   1.371   0.996   3.022
  332SOL    HW2 1074   1.257   1.099   3.078
  333SOL     OW 1075   1.302   0.855   2.171
  333SOL    HW1 1076   1.216   0.824   2.213
  333SOL    HW2 1077   1.298   0.841   2.072
  334SOL     OW 1078   1.759   1.747   3.016
  334SOL    HW1 1079   1.820   1.777   2.943
  334SOL    HW2 1080   1.721   1.658   2.994
  335SOL     OW 1081   1.252   1.731   2.990
  335SOL    HW1 1082   1.336   1.736   2.936
  335SOL    HW2 1083   1.229   1.635   3.008
  336SOL     OW 1084   0.083   1.258   2.884
  336SOL    HW1 1085   0.078   1.257   2.984
  336SOL    HW2 1086   0.000   1.217   2.846
  337SOL     OW 1087   1.726   0.135   2.385
  337SOL    HW1 1088   1.799   0.118   2.318
  337SOL    HW2 1089   1.695   0.048   2.423
  338SOL     OW 1090   1.388   1.573   2.339
  338SOL    HW1 1091   1.455   1.585   2.265
  338SOL    HW2 1092   1.348   1.662   2.362
  339SOL     OW 1093   0.130   1.794   3.713
  339SOL    HW1 1094   0.089   1.720   3.766
  339SOL    HW2 1095   0.194   1.845   3.771
  340SOL     OW 1096   1.280   0.927   2.534
  340SOL    HW1 1097   1.340   0.846   2.536
  340SOL    HW2 1098   1.320   0.996   2.474
  341SOL     OW 1099   0.672   1.616   2.016
  341SOL    HW1 1100   0.681   1.626   1.917
  341SOL    HW2 1101   0.632   1.527   2.037
  342SOL     OW 1102   1.650   1.720   3.256
  342SOL    HW1 1103   1.703   1.730   3.172
  342SOL    HW2 1104   1.623   1.810   3.290
  343SOL     OW 1105   1.841   0.175   2.825
  343SOL    HW1 1106   1.880   0.090   2.789
  343SOL    HW2 1107   1.743   0.177   2.806
  344SOL     OW 1108   0.263   0.326   2.582
  344SOL    HW1 1109   0.184   0.377   2.548
  344SOL    HW2 1110   0.254   0.311   2.680
  345SOL     OW 1111   1.194   1.612   1.893
  345SOL    HW1 1112   1.200   1.519   1.930
  345SOL    HW2 1113   1.135   1.612   1.813
  346SOL     OW 1114   0.822   1.002   3.234
  346SOL    HW1 1115   0.862   1.001   3.142
  346SOL    HW2 1116   0.832   1.094   3.274
  347SOL     OW 1117   0.916   0.910   2.153
  347SOL    HW1 1118   0.979   0.948   2.085
  347SOL    HW2 1119   0.956   0.827   2.192
  348SOL     OW 1120   1.504   1.607   1.906
  348SOL    HW1 1121   1.412   1.644   1.913
  348SOL    HW2 1122   1.542   1.627   1.816
  349SOL     OW 1123   0.372   1.288   3.352
  349SOL    HW1 1124   0.359   1.381   3.318
  349SOL    HW2 1125   0.288   1.236   3.339
  350SOL     OW 1126   1.614   1.292   3.151
  350SOL    HW1 1127   1.674   1.295   3.231
  350SOL    HW2 1128   1.539   1.356   3.164
  351SOL     OW 1129   1.039   1.098   2.558
  351SOL    HW1 1130   0.969   1.051   2.612
  351SOL    HW2 1131   1.098   1.030   2.515
  352SOL     OW 1132   1.014   0.236   2.833
  352SOL    HW1 1133   1.006   0.200   2.740
  352SOL    HW2 1134   1.012   0.160   2.898
  353SOL     OW 1135   0.590   1.487   2.353
  353SOL    HW1 1136   0.632   1.429   2.283
  353SOL    HW2 1137   0.546   1.566   2.309
  354SOL     OW 1138   1.709   0.385   3.243
  354SOL    HW1 1139   1.782   0.454   3.247
  354SOL    HW2 1140   1.737   0.310   3.184
  355SOL     OW 1141   0.255   1.348   2.152
  355SOL    HW1 1142   0.159   1.349   2.125
  355SOL    HW2 1143   0.267   1.401   2.236
  356SOL     OW 1144   0.105   1.013   3.588
  356SOL    HW1 1145   0.028   0.980   3.642
  356SOL    HW2 1146   0.190   0.983   3.630
  357SOL     OW 1147   0.672   0.203   3.351
  357SOL    HW1 1148   0.762   0.187   3.311
  357SOL    HW2 1149   0.680   0.208   3.450
  358SOL     OW 1150   0.075   0.345   1.895
  358SOL    HW1 1151  -0.017   0.317   1.866
  358SOL    HW2 1152   0.106   0.422   1.839
  359SOL     OW 1153   1.440   0.856   3.260
  359SOL    HW1 1154   1.383   0.908   3.197
  359SOL    HW2 1155   1.536   0.868   3.236
  360SOL     OW 1156   0.072   0.166   2.180
  360SOL    HW1 1157   0.055   0.249   2.126
  360SOL    HW2 1158   0.162   0.129   2.158
  361SOL     OW 1159   1.183   1.335   1.981
  361SOL    HW1 1160   1.084   1.324   1.983
  361SOL    HW2 1161   1.217   1.350   2.074
  362SOL     OW 1162   0.613   0.842   3.293
  362SOL    HW1 1163   0.669   0.923   3.276
  362SOL    HW2 1164   0.672   0.762   3.296
  363SOL     OW 1165   1.493   1.767   2.821
  363SOL    HW1 1166   1.526   1.831   2.752
  363SOL    HW2 1167   1.559   1.761   2.896
  364SOL     OW 1168   0.716   0.565   3.570
  364SOL    HW1 1169   0.735   0.630   3.644
  364SOL    HW2 1170   0.776   0.485   3.579
  365SOL     OW 1171   0.390   1.741   3.422
  365SOL    HW1 1172   0.299   1.782   3.420
  365SOL    HW2 1173   0.383   1.647   3.454
  366SOL     OW 1174   1.674   0.883   3.116
  366SOL    HW1 1175   1.647   0.794   3.079
  366SOL    HW2 1176   1.675   0.951   3.043
  367SOL     OW 1177   1.225   0.325   2.311
  367SOL    HW1 1178   1.290   0.251   2.300
  367SOL    HW2 1179   1.245   0.375   2.395
  368SOL     OW 1180   0.594   0.745   2.514
  368SOL    HW1 1181   0.644   0.830   2.495
  368SOL    HW2 1182   0.506   0.747   2.466
  369SOL     OW 1183   1.777   0.342   3.504
  369SOL    HW1 1184   1.760   0.373   3.410
  369SOL    HW2 1185   1.693   0.305   3.542
  370SOL     OW 1186   1.730   0.934   3.379
  370SOL    HW1 1187   1.768   1.025   3.394
  370SOL    HW2 1188   1.722   0.917   3.280
  371SOL     OW 1189   0.859   1.374   1.878
  371SOL    HW1 1190   0.813   1.389   1.966
  371SOL    HW2 1191   0.903   1.459   1.848
  372SOL     OW 1192   0.661   1.790   2.815
  372SOL    HW1 1193   0.615   1.878   2.802
  372SOL    HW2 1194   0.760   1.802   2.808
  373SOL     OW 1195   0.859   0.956   2.723
  373SOL    HW1 1196   0.913   0.887   2.771
  373SOL    HW2 1197   0.827   1.025   2.789
  374SOL     OW 1198   1.083   0.984   1.949
  374SOL    HW1 1199   1.060   1.037   1.867
  374SOL    HW2 1200   1.164   0.928   1.930
  375SOL     OW 1201   1.861   1.569   2.713
  375SOL    HW1 1202   1.790   1.557   2.643
  375SOL    HW2 1203   1.862   1.490   2.773
  376SOL     OW 1204   0.079   1.240   2.515
  376SOL    HW1 1205   0.078   1.193   2.603
  376SOL    HW2 1206   0.161   1.212   2.464
  377SOL     OW 1207   1.824   0.192   3.089
  377SOL    HW1 1208   1.820   0.102   3.133
  377SOL    HW2 1209   1.827   0.181   2.990
  378SOL     OW 1210   0.428   0.424   2.382
  378SOL    HW1 1211   0.458   0.352   2.320
  378SOL    HW2 1212   0.389   0.384   2.465
  379SOL     OW 1213   1.705   1.487   2.966
  379SOL    HW1 1214   1.612   1.462   2.939
  379SOL    HW2 1215   1.731   1.437   3.048
  380SOL     OW 1216   0.317   0.547   3.142
  380SOL    HW1 1217   0.355   0.488   3.214
  380SOL    HW2 1218   0.357   0.521   3.054
  381SOL     OW 1219   0.812   1.586   2.549
  381SOL    HW1 1220   0.844   1.596   2.455
  381SOL    HW2 1221   0.733   1.524   2.551
  382SOL     OW 1222   1.424   0.214   2.974
  382SOL    HW1 1223   1.476   0.149   3.029
  382SOL    HW2 1224   1.375   0.277   3.035
  383SOL     OW 1225   1.001   0.034   3.016
  383SOL    HW1 1226   0.938  -0.038   2.985
  383SOL    HW2 1227   1.094  -0.002   3.016
  384SOL     OW 1228   0.770   1.330   2.163
  384SOL    HW1 1229   0.724   1.243   2.180
  384SOL    HW2 1230   0.861   1.327   2.204
  385SOL     OW 1231   0.618   1.567   3.146
  385SOL    HW1 1232   0.613   1.649   3.203
  385SOL    HW2 1233   0.707   1.564   3.101
  386SOL     OW 1234   1.352   0.052   2.030
  386SOL    HW1 1235   1.387   0.011   1.946
  386SOL    HW2 1236   1.262   0.014   2.050
  387SOL     OW 1237   1.300   0.453   2.553
  387SOL    HW1 1238   1.241   0.533   2.557
  387SOL    HW2 1239   1.315   0.418   2.646
  388SOL     OW 1240   1.593   0.221   2.744
  388SOL    HW1 1241   1.509   0.220   2.798
  388SOL    HW2 1242   1.595   0.304   2.688
  389SOL     OW 1243   0.039   1.077   2.162
  389SOL    HW1 1244   0.138   1.066   2.153
  389SOL    HW2 1245  -0.001   0.991   2.194
  390SOL     OW 1246   0.875   1.646   2.199
  390SOL    HW1 1247   0.798   1.611   2.145
  390SOL    HW2 1248   0.843   1.717   2.261
  391SOL     OW 1249   0.230   2.490   0.113
  391SOL    HW1 1250   0.137   2.488   0.150
  391SOL    HW2 1251   0.231   2.451   0.021
  392SOL     OW 1252   0.225   2.137   0.996
  392SOL    HW1 1253   0.260   2.120   1.088
  392SOL    HW2 1254   0.137   2.092   0.984
  393SOL     OW 1255   0.019   2.230   0.647
  393SOL    HW1 1256  -0.063   2.273   0.686
  393SOL    HW2 1257  -0.009   2.157   0.584
  394SOL     OW 1258   0.569   3.137   1.165
  394SOL    HW1 1259   0.476   3.130   1.128
  394SOL    HW2 1260   0.580   3.226   1.209
  395SOL     OW 1261   1.555   3.373   0.703
  395SOL    HW1 1262   1.498   3.357   0.784
  395SOL    HW2 1263   1.496   3.383   0.623
  396SOL     OW 1264   1.135   2.565   0.717
  396SOL    HW1 1265   1.192   2.643   0.692
  396SOL    HW2 1266   1.075   2.591   0.793
  397SOL     OW 1267   1.755   2.469   0.231
  397SOL    HW1 1268   1.743   2.456   0.132
  397SOL    HW2 1269   1.725   2.388   0.280
  398SOL     OW 1270   0.768   3.006   1.023
  398SOL    HW1 1271   0.690   3.023   1.083
  398SOL    HW2 1272   0.802   3.093   0.987
  399SOL     OW 1273   0.850   2.660   1.823
  399SOL    HW1 1274   0.846   2.736   1.888
  399SOL    HW2 1275   0.872   2.696   1.732
  400SOL     OW 1276   0.685   2.874   0.665
  400SOL    HW1 1277   0.754   2.858   0.735
  400SOL    HW2 1278   0.612   2.931   0.703
  401SOL     OW 1279   0.686   3.023   1.803
  401SOL    HW1 1280   0.746   3.102   1.817
  401SOL    HW2 1281   0.600   3.054   1.762
  402SOL     OW 1282   0.335   3.297   1.061
  402SOL    HW1 1283   0.257   3.266   1.008
  402SOL    HW2 1284   0.393   3.355   1.004
  403SOL     OW 1285   1.460   3.367   1.339
  403SOL    HW1 1286   1.484   3.461   1.365
  403SOL    HW2 1287   1.444   3.313   1.421
  404SOL     OW 1288   0.438   2.254   1.499
  404SOL    HW1 1289   0.520   2.198   1.508
  404SOL    HW2 1290   0.357   2.196   1.503
  405SOL     OW 1291   1.603   2.309   0.737
  405SOL    HW1 1292   1.529   2.355   0.687
  405SOL    HW2 1293   1.654   2.377   0.790
  406SOL     OW 1294   1.127   3.203   1.690
  406SOL    HW1 1295   1.174   3.203   1.778
  406SOL    HW2 1296   1.079   3.116   1.679
  407SOL     OW 1297   0.230   3.296   0.538
  407SOL    HW1 1298   0.204   3.392   0.538
  407SOL    HW2 1299   0.159   3.242   0.583
  408SOL     OW 1300   0.240   2.953   0.886
  408SOL    HW1 1301   0.254   2.869   0.938
  408SOL    HW2 1302   0.185   3.017   0.941
  409SOL     OW 1303   0.606   2.826   0.123
  409SOL    HW1 1304   0.613   2.910   0.069
  409SOL    HW2 1305   0.652   2.839   0.211
  410SOL     OW 1306   1.594   1.976   1.480
  410SOL    HW1 1307   1.576   2.043   1.408
  410SOL    HW2 1308   1.591   2.022   1.569
  411SOL     OW 1309   0.122   2.505   0.563
  411SOL    HW1 1310   0.077   2.417   0.580
  411SOL    HW2 1311   0.121   2.559   0.647
  412SOL     OW 1312   0.027   3.458   0.117
  412SOL    HW1 1313   0.008   3.362   0.138
  412SOL    HW2 1314  -0.006   3.516   0.192
  413SOL     OW 1315   1.689   2.784   0.612
  413SOL    HW1 1316   1.784   2.755   0.620
  413SOL    HW2 1317   1.681   2.849   0.537
  414SOL     OW 1318   1.641   2.970   0.432
  414SOL    HW1 1319   1.727   2.972   0.380
  414SOL    HW2 1320   1.655   3.017   0.520
  415SOL     OW 1321   0.113   2.599   1.597
  415SOL    HW1 1322   0.201   2.586   1.642
  415SOL    HW2 1323   0.100   2.696   1.575
  416SOL     OW 1324   0.613   3.227   0.726
  416SOL    HW1 1325   0.564   3.140   0.735
  416SOL    HW2 1326   0.590   3.270   0.639
  417SOL     OW 1327   1.293   3.090   1.423
  417SOL    HW1 1328   1.330   3.017   1.365
  417SOL    HW2 1329   1.345   3.095   1.508
  418SOL     OW 1330   0.809   1.866   0.502
  418SOL    HW1 1331   0.849   1.957   0.493
  418SOL    HW2 1332   0.709   1.874   0.508
  419SOL     OW 1333   0.197   2.838   1.264
  419SOL    HW1 1334   0.286   2.793   1.250
  419SOL    HW2 1335   0.124   2.773   1.245
  420SOL     OW 1336   1.525   2.861   0.190
  420SOL    HW1 1337   1.462   2.785   0.203
  420SOL    HW2 1338   1.573   2.879   0.276
  421SOL     OW 1339   0.317   2.113   1.801
  421SOL    HW1 1340   0.388   2.184   1.807
  421SOL    HW2 1341   0.229   2.152   1.829
  422SOL     OW 1342   1.466   3.279   0.953
  422SOL    HW1 1343   1.407   3.285   1.033
  422SOL    HW2 1344   1.451   3.191   0.907
  423SOL     OW 1345   0.598   2.591   0.270
  423SOL    HW1 1346   0.622   2.660   0.202
  423SOL    HW2 1347   0.520   2.624   0.324
  424SOL     OW 1348   1.281   2.207   0.944
  424SOL    HW1 1349   1.195   2.157   0.931
  424SOL    HW2 1350   1.343   2.153   1.000
  425SOL     OW 1351   1.576   3.524   0.307
  425SOL    HW1 1352   1.665   3.570   0.310
  425SOL    HW2 1353   1.555   3.500   0.212
  426SOL     OW 1354   0.807   2.467   1.465
  426SOL    HW1 1355   0.760   2.464   1.554
  426SOL    HW2 1356   0.756   2.412   1.399
  427SOL     OW 1357   1.394   2.331   1.674
  427SOL    HW1 1358   1.374   2.374   1.762
  427SOL    HW2 1359   1.472   2.269   1.683
  428SOL     OW 1360   0.973   2.752   1.572
  428SOL    HW1 1361   1.019   2.668   1.543
  428SOL    HW2 1362   0.917   2.786   1.497
  429SOL     OW 1363   0.991   2.272   1.242
  429SOL    HW1 1364   0.914   2.306   1.296
  429SOL    HW2 1365   0.957   2.221   1.163
  430SOL     OW 1366   1.041   2.563   0.429
  430SOL    HW1 1367   1.067   2.559   0.525
  430SOL    HW2 1368   0.956   2.512   0.415
  431SOL     OW 1369   0.076   2.673   0.789
  431SOL    HW1 1370   0.175   2.661   0.798
  431SOL    HW2 1371   0.052   2.768   0.810
  432SOL     OW 1372   0.865   2.210   0.195
  432SOL    HW1 1373   0.924   2.273   0.146
  432SOL    HW2 1374   0.884   2.116   0.166
  433SOL     OW 1375   1.719   2.447   1.831
  433SOL    HW1 1376   1.693   2.536   1.795
  433SOL    HW2 1377   1.717   2.379   1.758
  434SOL     OW 1378   1.362   3.006   0.545
  434SOL    HW1 1379   1.445   2.977   0.497
  434SOL    HW2 1380   1.313   3.073   0.489
  435SOL     OW 1381   0.550   2.058   0.885
  435SOL    HW1 1382   0.545   2.053   0.985
  435SOL    HW2 1383   0.552   2.154   0.856
  436SOL     OW 1384   1.008   3.318   0.477
  436SOL    HW1 1385   0.962   3.390   0.425
  436SOL    HW2 1386   1.004   3.338   0.575
  437SOL     OW 1387   1.795   2.928   0.873
  437SOL    HW1 1388   1.733   2.913   0.797
  437SOL    HW2 1389   1.743   2.939   0.958
  438SOL     OW 1390   1.227   3.412   1.506
  438SOL    HW1 1391   1.233   3.335   1.570
  438SOL    HW2 1392   1.175   3.386   1.426
  439SOL     OW 1393   0.321   2.805   0.242
  439SOL    HW1 1394   0.403   2.844   0.200
  439SOL    HW2 1395   0.294   2.723   0.193
  440SOL     OW 1396   1.458   2.597   0.728
  440SOL    HW1 1397   1.453   2.532   0.803
  440SOL    HW2 1398   1.538   2.656   0.741
  441SOL     OW 1399   0.461   3.128   1.727
  441SOL    HW1 1400   0.411   3.129   1.641
  441SOL    HW2 1401   0.398   3.110   1.803
  442SOL     OW 1402   1.111   3.638   0.237
  442SOL    HW1 1403   1.051   3.576   0.287
  442SOL    HW2 1404   1.142   3.594   0.152
  443SOL     OW 1405   0.202   2.147   1.498
  443SOL    HW1 1406   0.122   2.207   1.485
  443SOL    HW2 1407   0.192   2.098   1.584
  444SOL     OW 1408   1.632   3.239   0.081
  444SOL    HW1 1409   1.600   3.333   0.071
  444SOL    HW2 1410   1.556   3.176   0.069
  445SOL     OW 1411   1.400   1.969   0.426
  445SOL    HW1 1412   1.376   1.932   0.336
  445SOL    HW2 1413   1.499   1.985   0.430
  446SOL     OW 1414   0.382   2.562   0.480
  446SOL    HW1 1415   0.427   2.472   0.477
  446SOL    HW2 1416   0.288   2.551   0.513
  447SOL     OW 1417   0.614   1.984   0.117
  447SOL    HW1 1418   0.712   1.962   0.124
  447SOL    HW2 1419   0.583   1.967   0.024
  448SOL     OW 1420   0.781   2.126   1.749
  448SOL    HW1 1421   0.848   2.065   1.792
  448SOL    HW2 1422   0.708   2.145   1.814
  449SOL     OW 1423   1.351   2.452   1.433
  449SOL    HW1 1424   1.379   2.409   1.518
  449SOL    HW2 1425   1.376   2.548   1.434
  450SOL     OW 1426   0.803   3.264   0.924
  450SOL    HW1 1427   0.893   3.278   0.882
  450SOL    HW2 1428   0.732   3.266   0.853
  451SOL     OW 1429   0.922   2.365   0.899
  451SOL    HW1 1430   0.897   2.356   0.803
  451SOL    HW2 1431   0.970   2.283   0.930
  452SOL     OW 1432   0.539   1.926   0.512
  452SOL    HW1 1433   0.458   1.927   0.570
  452SOL    HW2 1434   0.542   2.009   0.457
  453SOL     OW 1435   1.434   3.050   0.041
  453SOL    HW1 1436   1.466   2.974   0.098
  453SOL    HW2 1437   1.342   3.077   0.071
  454SOL     OW 1438   0.297   1.897   0.171
  454SOL    HW1 1439   0.346   1.981   0.150
  454SOL    HW2 1440   0.359   1.832   0.216
  455SOL     OW 1441   0.935   2.098   0.480
  455SOL    HW1 1442   0.887   2.139   0.402
  455SOL    HW2 1443   1.034   2.096   0.461
  456SOL     OW 1444   1.076   2.545   1.464
  456SOL    HW1 1445   0.996   2.484   1.467
  456SOL    HW2 1446   1.157   2.492   1.440
  457SOL     OW 1447   1.227   3.432   0.793
  457SOL    HW1 1448   1.248   3.506   0.728
  457SOL    HW2 1449   1.295   3.432   0.866
  458SOL     OW 1450   0.459   3.014   0.741
  458SOL    HW1 1451   0.388   2.987   0.806
  458SOL    HW2 1452   0.433   2.986   0.648
  459SOL     OW 1453   1.032   2.411   0.016
  459SOL    HW1 1454   0.991   2.493  -0.023
  459SOL    HW2 1455   1.096   2.437   0.089
  460SOL     OW 1456   0.078   2.418   1.386
  460SOL    HW1 1457   0.170   2.417   1.345
  460SOL    HW2 1458   0.072   2.492   1.453
  461SOL     OW 1459   0.561   2.084   1.147
  461SOL    HW1 1460   0.599   2.000   1.184
  461SOL    HW2 1461   0.473   2.103   1.191
  462SOL     OW 1462   0.866   2.316   0.642
  462SOL    HW1 1463   0.834   2.388   0.580
  462SOL    HW2 1464   0.890   2.235   0.589
  463SOL     OW 1465   1.017   1.901   0.753
  463SOL    HW1 1466   0.945   1.906   0.684
  463SOL    HW2 1467   0.993   1.832   0.822
  464SOL     OW 1468   1.429   3.035   0.867
  464SOL    HW1 1469   1.374   2.951   0.860
  464SOL    HW2 1470   1.455   3.064   0.775
  465SOL     OW 1471   1.466   2.452   0.992
  465SOL    HW1 1472   1.436   2.357   0.999
  465SOL    HW2 1473   1.539   2.468   1.058
  466SOL     OW 1474   1.857   2.695   0.377
  466SOL    HW1 1475   1.899   2.631   0.441
  466SOL    HW2 1476   1.819   2.644   0.299
  467SOL     OW 1477   0.488   3.247   0.174
  467SOL    HW1 1478   0.401   3.232   0.221
  467SOL    HW2 1479   0.471   3.273   0.079
  468SOL     OW 1480   1.664   3.142   0.657
  468SOL    HW1 1481   1.763   3.150   0.671
  468SOL    HW2 1482   1.619   3.226   0.688
  469SOL     OW 1483   1.390   2.437   0.078
  469SOL    HW1 1484   1.336   2.416   0.159
  469SOL    HW2 1485   1.481   2.396   0.087
  470SOL     OW 1486   0.527   2.118   0.328
  470SOL    HW1 1487   0.554   2.059   0.253
  470SOL    HW2 1488   0.527   2.213   0.297
  471SOL     OW 1489   1.754   3.085   1.588
  471SOL    HW1 1490   1.845   3.046   1.575
  471SOL    HW2 1491   1.762   3.181   1.612
  472SOL     OW 1492   1.064   3.209   1.340
  472SOL    HW1 1493   0.984   3.186   1.395
  472SOL    HW2 1494   1.147   3.183   1.389
  473SOL     OW 1495   1.111   3.057   1.100
  473SOL    HW1 1496   1.071   3.101   1.181
  473SOL    HW2 1497   1.070   3.094   1.017
  474SOL     OW 1498   1.638   2.961   1.079
  474SOL    HW1 1499   1.643   3.042   1.138
  474SOL    HW2 1500   1.552   2.963   1.028
  475SOL     OW 1501   0.980   2.978   1.719
  475SOL    HW1 1502   0.881   2.984   1.729
  475SOL    HW2 1503   1.003   2.898   1.663
  476SOL     OW 1504   0.705   2.912   0.368
  476SOL    HW1 1505   0.691   2.919   0.467
  476SOL    HW2 1506   0.789   2.861   0.350
  477SOL     OW 1507   0.410   2.675   1.251
  477SOL    HW1 1508   0.496   2.687   1.301
  477SOL    HW2 1509   0.368   2.588   1.278
  478SOL     OW 1510   1.274   2.248   1.262
  478SOL    HW1 1511   1.295   2.322   1.326
  478SOL    HW2 1512   1.185   2.265   1.219
  479SOL     OW 1513   0.064   3.426   1.331
  479SOL    HW1 1514   0.018   3.508   1.297
  479SOL    HW2 1515   0.162   3.445   1.340
  480SOL     OW 1516   0.367   2.962   0.501
  480SOL    HW1 1517   0.360   3.045   0.445
  480SOL    HW2 1518   0.371   2.882   0.441
  481SOL     OW 1519   0.566   2.399   0.865
  481SOL    HW1 1520   0.578   2.465   0.791
  481SOL    HW2 1521   0.612   2.433   0.948
  482SOL     OW 1522   1.252   3.210   0.388
  482SOL    HW1 1523   1.302   3.287   0.428
  482SOL    HW2 1524   1.157   3.212   0.420
  483SOL     OW 1525   1.272   3.307   1.142
  483SOL    HW1 1526   1.319   3.320   1.229
  483SOL    HW2 1527   1.206   3.233   1.151
  484SOL     OW 1528   1.582   2.501   0.472
  484SOL    HW1 1529   1.551   2.562   0.545
  484SOL    HW2 1530   1.632   2.553   0.403
  485SOL     OW 1531   0.354   3.372   1.329
  485SOL    HW1 1532   0.333   3.328   1.242
  485SOL    HW2 1533   0.451   3.398   1.332
  486SOL     OW 1534   0.402   2.613   1.598
  486SOL    HW1 1535   0.470   2.668   1.551
  486SOL    HW2 1536   0.442   2.525   1.625
  487SOL     OW 1537   1.587   2.641   1.670
  487SOL    HW1 1538   1.495   2.679   1.665
  487SOL    HW2 1539   1.647   2.688   1.605
  488SOL     OW 1540   0.504   1.912   1.740
  488SOL    HW1 1541   0.462   1.855   1.670
  488SOL    HW2 1542   0.438   1.981   1.772
  489SOL     OW 1543   0.573   2.732   1.029
  489SOL    HW1 1544   0.617   2.821   1.020
  489SOL    HW2 1545   0.510   2.732   1.106
  490SOL     OW 1546   1.360   2.724   1.045
  490SOL    HW1 1547   1.285   2.724   0.979
  490SOL    HW2 1548   1.397   2.632   1.054
  491SOL     OW 1549   1.209   2.387   0.275
  491SOL    HW1 1550   1.222   2.303   0.329
  491SOL    HW2 1551   1.180   2.461   0.335
  492SOL     OW 1552   0.307   2.075   1.231
  492SOL    HW1 1553   0.284   2.112   1.321
  492SOL    HW2 1554   0.277   1.980   1.225
  493SOL     OW 1555   0.037   3.172   1.282
  493SOL    HW1 1556   0.090   3.123   1.350
  493SOL    HW2 1557   0.059   3.270   1.287
  494SOL     OW 1558   0.732   2.496   1.064
  494SOL    HW1 1559   0.791   2.470   0.988
  494SOL    HW2 1560   0.704   2.592   1.053
  495SOL     OW 1561   1.728   2.797   1.854
  495SOL    HW1 1562   1.682   2.790   1.765
  495SOL    HW2 1563   1.666   2.841   1.920
  496SOL     OW 1564   0.307   1.925   0.618
  496SOL    HW1 1565   0.296   2.019   0.651
  496SOL    HW2 1566   0.302   1.862   0.695
  497SOL     OW 1567   1.622   2.229   0.374
  497SOL    HW1 1568   1.624   2.153   0.438
  497SOL    HW2 1569   1.574   2.306   0.414
  498SOL     OW 1570   1.023   2.628   0.966
  498SOL    HW1 1571   1.038   2.649   1.062
  498SOL    HW2 1572   0.993   2.533   0.957
  499SOL     OW 1573   1.859   3.380   1.605
  499SOL    HW1 1574   1.873   3.407   1.510
  499SOL    HW2 1575   1.942   3.402   1.658
  500SOL     OW 1576   0.350   2.760   1.804
  500SOL    HW1 1577   0.426   2.804   1.852
  500SOL    HW2 1578   0.385   2.713   1.722
  501SOL     OW 1579   1.540   2.136   0.125
  501SOL    HW1 1580   1.479   2.061   0.148
  501SOL    HW2 1581   1.562   2.188   0.208
  502SOL     OW 1582   1.303   2.700   0.042
  502SOL    HW1 1583   1.337   2.607   0.057
  502SOL    HW2 1584   1.321   2.727  -0.053
  503SOL     OW 1585   1.068   3.195   0.849
  503SOL    HW1 1586   1.075   3.111   0.794
  503SOL    HW2 1587   1.130   3.264   0.813
  504SOL     OW 1588   0.319   2.672   0.949
  504SOL    HW1 1589   0.412   2.708   0.954
  504SOL    HW2 1590   0.313   2.587   1.001
  505SOL     OW 1591   0.339   2.371   1.006
  505SOL    HW1 1592   0.287   2.288   0.989
  505SOL    HW2 1593   0.416   2.376   0.942
  506SOL     OW 1594   0.008   3.188   0.200
  506SOL    HW1 1595  -0.085   3.209   0.169
  506SOL    HW2 1596   0.018   3.089   0.213
  507SOL     OW 1597   0.504   3.430   0.910
  507SOL    HW1 1598   0.570   3.504   0.919
  507SOL    HW2 1599   0.548   3.351   0.868
  508SOL     OW 1600   1.002   2.658   1.238
  508SOL    HW1 1601   1.043   2.626   1.324
  508SOL    HW2 1602   0.906   2.631   1.235
  509SOL     OW 1603   0.040   2.406   1.114
  509SOL    HW1 1604   0.125   2.373   1.073
  509SOL    HW2 1605   0.053   2.421   1.212
  510SOL     OW 1606   0.189   2.382   1.722
  510SOL    HW1 1607   0.248   2.342   1.652
  510SOL    HW2 1608   0.131   2.453   1.681
  511SOL     OW 1609   1.369   2.812   1.660
  511SOL    HW1 1610   1.408   2.901   1.680
  511SOL    HW2 1611   1.379   2.792   1.563
  512SOL     OW 1612   0.815   2.434   0.325
  512SOL    HW1 1613   0.822   2.345   0.279
  512SOL    HW2 1614   0.721   2.468   0.317
  513SOL     OW 1615   1.657   2.466   1.206
  513SOL    HW1 1616   1.619   2.397   1.268
  513SOL    HW2 1617   1.739   2.430   1.162
  514SOL     OW 1618   0.252   3.426   1.744
  514SOL    HW1 1619   0.222   3.483   1.820
  514SOL    HW2 1620   0.245   3.329   1.770
  515SOL     OW 1621   0.671   2.326   1.269
  515SOL    HW1 1622   0.637   2.237   1.239
  515SOL    HW2 1623   0.697   2.380   1.189
  516SOL     OW 1624   0.473   2.362   0.191
  516SOL    HW1 1625   0.534   2.442   0.195
  516SOL    HW2 1626   0.378   2.393   0.198
  517SOL     OW 1627   0.159   2.999   1.466
  517SOL    HW1 1628   0.181   2.938   1.542
  517SOL    HW2 1629   0.169   2.950   1.380
  518SOL     OW 1630   1.347   2.921   1.234
  518SOL    HW1 1631   1.371   2.858   1.160
  518SOL    HW2 1632   1.257   2.961   1.216
  519SOL     OW 1633   1.302   2.717   0.309
  519SOL    HW1 1634   1.216   2.686   0.351
  519SOL    HW2 1635   1.298   2.703   0.210
  520SOL     OW 1636   0.083   3.120   1.022
  520SOL    HW1 1637   0.078   3.119   1.122
  520SOL    HW2 1638   0.000   3.079   0.984
  521SOL     OW 1639   0.688   3.524   1.716
  521SOL    HW1 1640   0.632   3.605   1.725
  521SOL    HW2 1641   0.740   3.528   1.630
  522SOL     OW 1642   0.903   1.948   0.133
  522SOL    HW1 1643   0.954   1.949   0.047
  522SOL    HW2 1644   0.959   1.906   0.204
  523SOL     OW 1645   1.726   1.997   0.523
  523SOL    HW1 1646   1.799   1.980   0.456
  523SOL    HW2 1647   1.695   1.910   0.561
  524SOL     OW 1648   1.280   2.789   0.672
  524SOL    HW1 1649   1.340   2.708   0.674
  524SOL    HW2 1650   1.320   2.858   0.612
  525SOL     OW 1651   0.830   3.135   1.422
  525SOL    HW1 1652   0.825   3.168   1.517
  525SOL    HW2 1653   0.744   3.154   1.376
  526SOL     OW 1654   1.841   2.037   0.963
  526SOL    HW1 1655   1.880   1.952   0.927
  526SOL    HW2 1656   1.743   2.039   0.944
  527SOL     OW 1657   0.263   2.188   0.720
  527SOL    HW1 1658   0.184   2.239   0.686
  527SOL    HW2 1659   0.254   2.173   0.818
  528SOL     OW 1660   1.194   3.474   0.031
  528SOL    HW1 1661   1.200   3.381   0.068
  528SOL    HW2 1662   1.135   3.474  -0.049
  529SOL     OW 1663   0.822   2.864   1.372
  529SOL    HW1 1664   0.862   2.863   1.280
  529SOL    HW2 1665   0.832   2.956   1.412
  530SOL     OW 1666   0.916   2.772   0.291
  530SOL    HW1 1667   0.979   2.810   0.223
  530SOL    HW2 1668   0.956   2.689   0.330
  531SOL     OW 1669   0.372   3.150   1.490
  531SOL    HW1 1670   0.359   3.243   1.456
  531SOL    HW2 1671   0.288   3.098   1.477
  532SOL     OW 1672   1.614   3.154   1.289
  532SOL    HW1 1673   1.674   3.157   1.369
  532SOL    HW2 1674   1.539   3.218   1.302
  533SOL     OW 1675   1.039   2.960   0.696
  533SOL    HW1 1676   0.969   2.913   0.750
  533SOL    HW2 1677   1.098   2.892   0.653
  534SOL     OW 1678   1.014   2.098   0.971
  534SOL    HW1 1679   1.006   2.062   0.878
  534SOL    HW2 1680   1.012   2.022   1.036
  535SOL     OW 1681   1.709   2.247   1.381
  535SOL    HW1 1682   1.782   2.316   1.385
  535SOL    HW2 1683   1.737   2.172   1.322
  536SOL     OW 1684   0.255   3.210   0.290
  536SOL    HW1 1685   0.159   3.211   0.263
  536SOL    HW2 1686   0.267   3.263   0.374
  537SOL     OW 1687   0.105   2.875   1.726
  537SOL    HW1 1688   0.028   2.842   1.780
  537SOL    HW2 1689   0.190   2.845   1.768
  538SOL     OW 1690   0.672   2.065   1.489
  538SOL    HW1 1691   0.762   2.049   1.449
  538SOL    HW2 1692   0.680   2.070   1.588
  539SOL     OW 1693   0.075   2.207   0.033
  539SOL    HW1 1694  -0.017   2.179   0.004
  539SOL    HW2 1695   0.106   2.284  -0.023
  540SOL     OW 1696   1.440   2.718   1.398
  540SOL    HW1 1697   1.383   2.770   1.335
  540SOL    HW2 1698   1.536   2.730   1.374
  541SOL     OW 1699   0.072   2.028   0.318
  541SOL    HW1 1700   0.055   2.111   0.264
  541SOL    HW2 1701   0.162   1.991   0.296
  542SOL     OW 1702   1.183   3.197   0.119
  542SOL    HW1 1703   1.084   3.186   0.121
  542SOL    HW2 1704   1.217   3.212   0.212
  543SOL     OW 1705   0.613   2.704   1.431
  543SOL    HW1 1706   0.669   2.785   1.414
  543SOL    HW2 1707   0.672   2.624   1.434
  544SOL     OW 1708   0.716   2.427   1.708
  544SOL    HW1 1709   0.735   2.492   1.782
  544SOL    HW2 1710   0.776   2.347   1.717
  545SOL     OW 1711   1.450   3.082   1.633
  545SOL    HW1 1712   1.441   3.072   1.732
  545SOL    HW2 1713   1.546   3.075   1.607
  546SOL     OW 1714   1.674   2.745   1.254
  546SOL    HW1 1715   1.647   2.656   1.217
  546SOL    HW2 1716   1.675   2.813   1.181
  547SOL     OW 1717   1.225   2.187   0.449
  547SOL    HW1 1718   1.290   2.113   0.438
  547SOL    HW2 1719   1.245   2.237   0.533
  548SOL     OW 1720   0.594   2.607   0.652
  548SOL    HW1 1721   0.644   2.692   0.633
  548SOL    HW2 1722   0.506   2.609   0.604
  549SOL     OW 1723   1.777   2.204   1.642
  549SOL    HW1 1724   1.760   2.235   1.548
  549SOL    HW2 1725   1.693   2.167   1.680
  550SOL     OW 1726   1.730   2.796   1.517
  550SOL    HW1 1727   1.768   2.887   1.532
  550SOL    HW2 1728   1.722   2.779   1.418
  551SOL     OW 1729   0.859   3.236   0.016
  551SOL    HW1 1730   0.813   3.251   0.104
  551SOL    HW2 1731   0.903   3.321  -0.014
  552SOL     OW 1732   0.859   2.818   0.861
  552SOL    HW1 1733   0.913   2.749   0.909
  552SOL    HW2 1734   0.827   2.887   0.927
  553SOL     OW 1735   1.083   2.846   0.087
  553SOL    HW1 1736   1.060   2.899   0.005
  553SOL    HW2 1737   1.164   2.790   0.068
  554SOL     OW 1738   0.221   3.176   1.844
  554SOL    HW1 1739   0.156   3.103   1.823
  554SOL    HW2 1740   0.225   3.190   1.942
  555SOL     OW 1741   0.079   3.102   0.653
  555SOL    HW1 1742   0.078   3.055   0.741
  555SOL    HW2 1743   0.161   3.074   0.602
  556SOL     OW 1744   0.672   3.253   1.624
  556SOL    HW1 1745   0.594   3.203   1.662
  556SOL    HW2 1746   0.669   3.348   1.655
  557SOL     OW 1747   1.824   2.054   1.227
  557SOL    HW1 1748   1.820   1.964   1.271
  557SOL    HW2 1749   1.827   2.043   1.128
  558SOL     OW 1750   0.428   2.286   0.520
  558SOL    HW1 1751   0.458   2.214   0.458
  558SOL    HW2 1752   0.389   2.246   0.603
  559SOL     OW 1753   1.705   3.349   1.104
  559SOL    HW1 1754   1.612   3.324   1.077
  559SOL    HW2 1755   1.731   3.299   1.186
  560SOL     OW 1756   0.317   2.409   1.280
  560SOL    HW1 1757   0.355   2.350   1.352
  560SOL    HW2 1758   0.357   2.383   1.192
  561SOL     OW 1759   1.424   2.076   1.112
  561SOL    HW1 1760   1.476   2.011   1.167
  561SOL    HW2 1761   1.375   2.139   1.173
  562SOL     OW 1762   1.001   1.896   1.154
  562SOL    HW1 1763   0.938   1.824   1.123
  562SOL    HW2 1764   1.094   1.860   1.154
  563SOL     OW 1765   0.770   3.192   0.301
  563SOL    HW1 1766   0.724   3.105   0.318
  563SOL    HW2 1767   0.861   3.189   0.342
  564SOL     OW 1768   0.618   3.429   1.284
  564SOL    HW1 1769   0.613   3.511   1.341
  564SOL    HW2 1770   0.707   3.426   1.239
  565SOL     OW 1771   1.352   1.914   0.168
  565SOL    HW1 1772   1.387   1.873   0.084
  565SOL    HW2 1773   1.262   1.876   0.188
  566SOL     OW 1774   1.300   2.315   0.691
  566SOL    HW1 1775   1.241   2.395   0.695
  566SOL    HW2 1776   1.315   2.280   0.784
  567SOL     OW 1777   1.593   2.083   0.882
  567SOL    HW1 1778   1.509   2.082   0.936
  567SOL    HW2 1779   1.595   2.166   0.826
  568SOL     OW 1780   0.039   2.939   0.300
  568SOL    HW1 1781   0.138   2.928   0.291
  568SOL    HW2 1782  -0.001   2.853   0.332
  569SOL     OW 1783   0.230   2.490   1.975
  569SOL    HW1 1784   0.137   2.488   2.012
  569SOL    HW2 1785   0.231   2.451   1.883
  570SOL     OW 1786   0.225   2.137   2.858
  570SOL    HW1 1787   0.260   2.120   2.950
  570SOL    HW2 1788   0.137   2.092   2.846
  571SOL     OW 1789   0.019   2.230   2.509
  571SOL    HW1 1790  -0.063   2.273   2.548
  571SOL    HW2 1791  -0.009   2.157   2.446
  572SOL     OW 1792   0.569   3.137   3.027
  572SOL    HW1 1793   0.476   3.130   2.990
  572SOL    HW2 1794   0.580   3.226   3.071
  573SOL     OW 1795   1.555   3.373   2.565
  573SOL    HW1 1796   1.498   3.357   2.646
  573SOL    HW2 1797   1.496   3.383   2.485
  574SOL     OW 1798   1.135   2.565   2.579
  574SOL    HW1 1799   1.192   2.643   2.554
  574SOL    HW2 1800   1.075   2.591   2.655
  575SOL     OW 1801   1.755   2.469   2.093
  575SOL    HW1 1802   1.743   2.456   1.994
  575SOL    HW2 1803   1.725   2.388   2.142
  576SOL     OW 1804   0.768   3.006   2.885
  576SOL    HW1 1805   0.690   3.023   2.945
  576SOL    HW2 1806   0.802   3.093   2.849
  577SOL     OW 1807   0.685   2.874   2.527
  577SOL    HW1 1808   0.754   2.858   2.597
  577SOL    HW2 1809   0.612   2.931   2.565
  578SOL     OW 1810   0.335   3.297   2.923
  578SOL    HW1 1811   0.257   3.266   2.870
  578SOL    HW2 1812   0.393   3.355   2.866
  579SOL     OW 1813   1.460   3.367   3.201
  579SOL    HW1 1814   1.484   3.461   3.227
  579SOL    HW2 1815   1.444   3.313   3.283
  580SOL     OW 1816   0.438   2.254   3.361
  580SOL    HW1 1817   0.520   2.198   3.370
  580SOL    HW2 1818   0.357   2.196   3.365
  581SOL     OW 1819   1.603   2.309   2.599
  581SOL    HW1 1820   1.529   2.355   2.549
  581SOL    HW2 1821   1.654   2.377   2.652
  582SOL     OW 1822   0.230   3.296   2.400
  582SOL    HW1 1823   0.204   3.392   2.400
  582SOL    HW2 1824   0.159   3.242   2.445
  583SOL     OW 1825   0.240   2.953   2.748
  583SOL    HW1 1826   0.254   2.869   2.800
  583SOL    HW2 1827   0.185   3.017   2.803
  584SOL     OW 1828   0.606   2.826   1.985
  584SOL    HW1 1829   0.613   2.910   1.931
  584SOL    HW2 1830   0.652   2.839   2.073
  585SOL     OW 1831   1.594   1.976   3.342
  585SOL    HW1 1832   1.576   2.043   3.270
  585SOL    HW2 1833   1.591   2.022   3.431
  586SOL     OW 1834   0.122   2.505   2.425
  586SOL    HW1 1835   0.077   2.417   2.442
  586SOL    HW2 1836   0.121   2.559   2.509
  587SOL     OW 1837   0.027   3.458   1.979
  587SOL    HW1 1838   0.008   3.362   2.000
  587SOL    HW2 1839  -0.006   3.516   2.054
  588SOL     OW 1840   1.689   2.784   2.474
  588SOL    HW1 1841   1.784   2.755   2.482
  588SOL    HW2 1842   1.681   2.849   2.399
  589SOL     OW 1843   1.641   2.970   2.294
  589SOL    HW1 1844   1.727   2.972   2.242
  589SOL    HW2 1845   1.655   3.017   2.382
  590SOL     OW 1846   0.613   3.227   2.588
  590SOL    HW1 1847   0.564   3.140   2.597
  590SOL    HW2 1848   0.590   3.270   2.501
  591SOL     OW 1849   1.293   3.090   3.285
  591SOL    HW1 1850   1.330   3.017   3.227
  591SOL    HW2 1851   1.345   3.095   3.370
  592SOL     OW 1852   0.809   1.866   2.364
  592SOL    HW1 1853   0.849   1.957   2.355
  592SOL    HW2 1854   0.709   1.874   2.370
  593SOL     OW 1855   0.197   2.838   3.126
  593SOL    HW1 1856   0.286   2.793   3.112
  593SOL    HW2 1857   0.124   2.773   3.107
  594SOL     OW 1858   1.525   2.861   2.052
  594SOL    HW1 1859   1.462   2.785   2.065
  594SOL    HW2 1860   1.573   2.879   2.138
  595SOL     OW 1861   1.466   3.279   2.815
  595SOL    HW1 1862   1.407   3.285   2.895
  595SOL    HW2 1863   1.451   3.191   2.769
  596SOL     OW 1864   0.598   2.591   2.132
  596SOL    HW1 1865   0.622   2.660   2.064
  596SOL    HW2 1866   0.520   2.624   2.186
  597SOL     OW 1867   1.281   2.207   2.806
  597SOL    HW1 1868   1.195   2.157   2.793
  597SOL    HW2 1869   1.343   2.153   2.862
  598SOL     OW 1870   1.576   3.524   2.169
  598SOL    HW1 1871   1.665   3.570   2.172
  598SOL    HW2 1872   1.555   3.500   2.074
  599SOL     OW 1873   0.807   2.467   3.327
  599SOL    HW1 1874   0.760   2.464   3.416
  599SOL    HW2 1875   0.756   2.412   3.261
  600SOL     OW 1876   0.973   2.752   3.434
  600SOL    HW1 1877   1.019   2.668   3.405
  600SOL    HW2 1878   0.917   2.786   3.359
  601SOL     OW 1879   0.991   2.272   3.104
  601SOL    HW1 1880   0.914   2.306   3.158
  601SOL    HW2 1881   0.957   2.221   3.025
  602SOL     OW 1882   1.041   2.563   2.291
  602SOL    HW1 1883   1.067   2.559   2.387
  602SOL    HW2 1884   0.956   2.512   2.277
  603SOL     OW 1885   0.076   2.673   2.651
  603SOL    HW1 1886   0.175   2.661   2.660
  603SOL    HW2 1887   0.052   2.768   2.672
  604SOL     OW 1888   0.865   2.210   2.057
  604SOL    HW1 1889   0.924   2.273   2.008
  604SOL    HW2 1890   0.884   2.116   2.028
  605SOL     OW 1891   1.362   3.006   2.407
  605SOL    HW1 1892   1.445   2.977   2.359
  605SOL    HW2 1893   1.313   3.073   2.351
  606SOL     OW 1894   0.550   2.058   2.747
  606SOL    HW1 1895   0.545   2.053   2.847
  606SOL    HW2 1896   0.552   2.154   2.718
  607SOL     OW 1897   1.008   3.318   2.339
  607SOL    HW1 1898   0.962   3.390   2.287
  607SOL    HW2 1899   1.004   3.338   2.437
  608SOL     OW 1900   1.795   2.928   2.735
  608SOL    HW1 1901   1.733   2.913   2.659
  608SOL    HW2 1902   1.743   2.939   2.820
  609SOL     OW 1903   0.321   2.805   2.104
  609SOL    HW1 1904   0.403   2.844   2.062
  609SOL    HW2 1905   0.294   2.723   2.055
  610SOL     OW 1906   1.458   2.597   2.590
  610SOL    HW1 1907   1.453   2.532   2.665
  610SOL    HW2 1908   1.538   2.656   2.603
  611SOL     OW 1909   1.111   3.638   2.099
  611SOL    HW1 1910   1.051   3.576   2.149
  611SOL    HW2 1911   1.142   3.594   2.014
  612SOL     OW 1912   1.632   3.239   1.943
  612SOL    HW1 1913   1.600   3.333   1.933
  612SOL    HW2 1914   1.556   3.176   1.931
  613SOL     OW 1915   1.400   1.969   2.288
  613SOL    HW1 1916   1.376   1.932   2.198
  613SOL    HW2 1917   1.499   1.985   2.292
  614SOL     OW 1918   0.382   2.562   2.342
  614SOL    HW1 1919   0.427   2.472   2.339
  614SOL    HW2 1920   0.288   2.551   2.375
  615SOL     OW 1921   0.614   1.984   1.979
  615SOL    HW1 1922   0.712   1.962   1.986
  615SOL    HW2 1923   0.583   1.967   1.886
  616SOL     OW 1924   1.351   2.452   3.295
  616SOL    HW1 1925   1.379   2.409   3.380
  616SOL    HW2 1926   1.376   2.548   3.296
  617SOL     OW 1927   0.803   3.264   2.786
  617SOL    HW1 1928   0.893   3.278   2.744
  617SOL    HW2 1929   0.732   3.266   2.715
  618SOL     OW 1930   0.922   2.365   2.761
  618SOL    HW1 1931   0.897   2.356   2.665
  618SOL    HW2 1932   0.970   2.283   2.792
  619SOL     OW 1933   0.539   1.926   2.374
  619SOL    HW1 1934   0.458   1.927   2.432
  619SOL    HW2 1935   0.542   2.009   2.319
  620SOL     OW 1936   1.434   3.050   1.903
  620SOL    HW1 1937   1.466   2.974   1.960
  620SOL    HW2 1938   1.342   3.077   1.933
  621SOL     OW 1939   0.297   1.897   2.033
  621SOL    HW1 1940   0.346   1.981   2.012
  621SOL    HW2 1941   0.359   1.832   2.078
  622SOL     OW 1942   0.935   2.098   2.342
  622SOL    HW1 1943   0.887   2.139   2.264
  622SOL    HW2 1944   1.034   2.096   2.323
  623SOL     OW 1945   1.227   3.432   2.655
  623SOL    HW1 1946   1.248   3.506   2.590
  623SOL    HW2 1947   1.295   3.432   2.728
  624SOL     OW 1948   0.459   3.014   2.603
  624SOL    HW1 1949   0.388   2.987   2.668
  624SOL    HW2 1950   0.433   2.986   2.510
  625SOL     OW 1951   1.032   2.411   1.878
  625SOL    HW1 1952   0.991   2.493   1.839
  625SOL    HW2 1953   1.096   2.437   1.951
  626SOL     OW 1954   0.078   2.418   3.248
  626SOL    HW1 1955   0.170   2.417   3.207
  626SOL    HW2 1956   0.072   2.492   3.315
  627SOL     OW 1957   0.561   2.084   3.009
  627SOL    HW1 1958   0.599   2.000   3.046
  627SOL    HW2 1959   0.473   2.103   3.053
  628SOL     OW 1960   0.866   2.316   2.504
  628SOL    HW1 1961   0.834   2.388   2.442
  628SOL    HW2 1962   0.890   2.235   2.451
  629SOL     OW 1963   1.017   1.901   2.615
  629SOL    HW1 1964   0.945   1.906   2.546
  629SOL    HW2 1965   0.993   1.832   2.684
  630SOL     OW 1966   1.429   3.035   2.729
  630SOL    HW1 1967   1.374   2.951   2.722
  630SOL    HW2 1968   1.455   3.064   2.637
  631SOL     OW 1969   1.466   2.452   2.854
  631SOL    HW1 1970   1.436   2.357   2.861
  631SOL    HW2 1971   1.539   2.468   2.920
  632SOL     OW 1972   1.857   2.695   2.239
  632SOL    HW1 1973   1.899   2.631   2.303
  632SOL    HW2 1974   1.819   2.644   2.161
  633SOL     OW 1975   0.488   3.247   2.036
  633SOL    HW1 1976   0.401   3.232   2.083
  633SOL    HW2 1977   0.471   3.273   1.941
  634SOL     OW 1978   1.664   3.142   2.519
  634SOL    HW1 1979   1.763   3.150   2.533
  634SOL    HW2 1980   1.619   3.226   2.550
  635SOL     OW 1981   1.390   2.437   1.940
  635SOL    HW1 1982   1.336   2.416   2.021
  635SOL    HW2 1983   1.481   2.396   1.949
  636SOL     OW 1984   0.527   2.118   2.190
  636SOL    HW1 1985   0.554   2.059   2.115
  636SOL    HW2 1986   0.527   2.213   2.159
  637SOL     OW 1987   1.754   3.085   3.450
  637SOL    HW1 1988   1.845   3.046   3.437
  637SOL    HW2 1989   1.762   3.181   3.474
  638SOL     OW 1990   1.064   3.209   3.202
  638SOL    HW1 1991   0.984   3.186   3.257
  638SOL    HW2 1992   1.147   3.183   3.251
  639SOL     OW 1993   1.111   3.057   2.962
  639SOL    HW1 1994   1.071   3.101   3.043
  639SOL    HW2 1995   1.070   3.094   2.879
  640SOL     OW 1996   1.638   2.961   2.941
  640SOL    HW1 1997   1.643   3.042   3.000
  640SOL    HW2 1998   1.552   2.963   2.890
  641SOL     OW 1999   0.915   1.951   3.264
  641SOL    HW1 2000   0.940   1.931   3.169
  641SOL    HW2 2001   0.987   2.007   3.306
  642SOL     OW 2002   0.705   2.912   2.230
  642SOL    HW1 2003   0.691   2.919   2.329
  642SOL    HW2 2004   0.789   2.861   2.212
  643SOL     OW 2005   0.410   2.675   3.113
  643SOL    HW1 2006   0.496   2.687   3.163
  643SOL    HW2 2007   0.368   2.588   3.140
  644SOL     OW 2008   1.274   2.248   3.124
  644SOL    HW1 2009   1.295   2.322   3.188
  644SOL    HW2 2010   1.185   2.265   3.081
  645SOL     OW 2011   0.064   3.426   3.193
  645SOL    HW1 2012   0.018   3.508   3.159
  645SOL    HW2 2013   0.162   3.445   3.202
  646SOL     OW 2014   0.367   2.962   2.363
  646SOL    HW1 2015   0.360   3.045   2.307
  646SOL    HW2 2016   0.371   2.882   2.303
  647SOL     OW 2017   0.566   2.399   2.727
  647SOL    HW1 2018   0.578   2.465   2.653
  647SOL    HW2 2019   0.612   2.433   2.810
  648SOL     OW 2020   1.252   3.210   2.250
  648SOL    HW1 2021   1.302   3.287   2.290
  648SOL    HW2 2022   1.157   3.212   2.282
  649SOL     OW 2023   1.272   3.307   3.004
  649SOL    HW1 2024   1.319   3.320   3.091
  649SOL    HW2 2025   1.206   3.233   3.013
  650SOL     OW 2026   1.582   2.501   2.334
  650SOL    HW1 2027   1.551   2.562   2.407
  650SOL    HW2 2028   1.632   2.553   2.265
  651SOL     OW 2029   0.354   3.372   3.191
  651SOL    HW1 2030   0.333   3.328   3.104
  651SOL    HW2 2031   0.451   3.398   3.194
  652SOL     OW 2032   0.402   2.613   3.460
  652SOL    HW1 2033   0.470   2.668   3.413
  652SOL    HW2 2034   0.442   2.525   3.487
  653SOL     OW 2035   1.587   2.641   3.532
  653SOL    HW1 2036   1.495   2.679   3.527
  653SOL    HW2 2037   1.647   2.688   3.467
  654SOL     OW 2038   0.573   2.732   2.891
  654SOL    HW1 2039   0.617   2.821   2.882
  654SOL    HW2 2040   0.510   2.732   2.968
  655SOL     OW 2041   1.360   2.724   2.907
  655SOL    HW1 2042   1.285   2.724   2.841
  655SOL    HW2 2043   1.397   2.632   2.916
  656SOL     OW 2044   1.209   2.387   2.137
  656SOL    HW1 2045   1.222   2.303   2.191
  656SOL    HW2 2046   1.180   2.461   2.197
  657SOL     OW 2047   0.307   2.075   3.093
  657SOL    HW1 2048   0.284   2.112   3.183
  657SOL    HW2 2049   0.277   1.980   3.087
  658SOL     OW 2050   0.037   3.172   3.144
  658SOL    HW1 2051   0.090   3.123   3.212
  658SOL    HW2 2052   0.059   3.270   3.149
  659SOL     OW 2053   0.732   2.496   2.926
  659SOL    HW1 2054   0.791   2.470   2.850
  659SOL    HW2 2055   0.704   2.592   2.915
  660SOL     OW 2056   0.307   1.925   2.480
  660SOL    HW1 2057   0.296   2.019   2.513
  660SOL    HW2 2058   0.302   1.862   2.557
  661SOL     OW 2059   1.622   2.229   2.236
  661SOL    HW1 2060   1.624   2.153   2.300
  661SOL    HW2 2061   1.574   2.306   2.276
  662SOL     OW 2062   1.023   2.628   2.828
  662SOL    HW1 2063   1.038   2.649   2.924
  662SOL    HW2 2064   0.993   2.533   2.819
  663SOL     OW 2065   1.303   2.700   1.904
  663SOL    HW1 2066   1.337   2.607   1.919
  663SOL    HW2 2067   1.321   2.727   1.809
  664SOL     OW 2068   1.068   3.195   2.711
  664SOL    HW1 2069   1.075   3.111   2.656
  664SOL    HW2 2070   1.130   3.264   2.675
  665SOL     OW 2071   0.319   2.672   2.811
  665SOL    HW1 2072   0.412   2.708   2.816
  665SOL    HW2 2073   0.313   2.587   2.863
  666SOL     OW 2074   0.339   2.371   2.868
  666SOL    HW1 2075   0.287   2.288   2.851
  666SOL    HW2 2076   0.416   2.376   2.804
  667SOL     OW 2077   1.138   2.242   3.540
  667SOL    HW1 2078   1.093   2.305   3.604
  667SOL    HW2 2079   1.231   2.273   3.523
  668SOL     OW 2080   1.160   2.069   3.339
  668SOL    HW1 2081   1.160   2.133   3.416
  668SOL    HW2 2082   1.188   2.117   3.256
  669SOL     OW 2083   0.008   3.188   2.062
  669SOL    HW1 2084  -0.085   3.209   2.031
  669SOL    HW2 2085   0.018   3.089   2.075
  670SOL     OW 2086   0.504   3.430   2.772
  670SOL    HW1 2087   0.570   3.504   2.781
  670SOL    HW2 2088   0.548   3.351   2.730
  671SOL     OW 2089   1.002   2.658   3.100
  671SOL    HW1 2090   1.043   2.626   3.186
  671SOL    HW2 2091   0.906   2.631   3.097
  672SOL     OW 2092   0.040   2.406   2.976
  672SOL    HW1 2093   0.125   2.373   2.935
  672SOL    HW2 2094   0.053   2.421   3.074
  673SOL     OW 2095   0.815   2.434   2.187
  673SOL    HW1 2096   0.822   2.345   2.141
  673SOL    HW2 2097   0.721   2.468   2.179
  674SOL     OW 2098   1.657   2.466   3.068
  674SOL    HW1 2099   1.619   2.397   3.130
  674SOL    HW2 2100   1.739   2.430   3.024
  675SOL     OW 2101   0.671   2.326   3.131
  675SOL    HW1 2102   0.637   2.237   3.101
  675SOL    HW2 2103   0.697   2.380   3.051
  676SOL     OW 2104   0.473   2.362   2.053
  676SOL    HW1 2105   0.534   2.442   2.057
  676SOL    HW2 2106   0.378   2.393   2.060
  677SOL     OW 2107   0.159   2.999   3.328
  677SOL    HW1 2108   0.181   2.938   3.404
  677SOL    HW2 2109   0.169   2.950   3.242
  678SOL     OW 2110   1.347   2.921   3.096
  678SOL    HW1 2111   1.371   2.858   3.022
  678SOL    HW2 2112   1.257   2.961   3.078
  679SOL     OW 2113   1.302   2.717   2.171
  679SOL    HW1 2114   1.216   2.686   2.213
  679SOL    HW2 2115   1.298   2.703   2.072
  680SOL     OW 2116   0.083   3.120   2.884
  680SOL    HW1 2117   0.078   3.119   2.984
  680SOL    HW2 2118   0.000   3.079   2.846
  681SOL     OW 2119   1.280   2.789   2.534
  681SOL    HW1 2120   1.340   2.708   2.536
  681SOL    HW2 2121   1.320   2.858   2.474
  682SOL     OW 2122   1.841   2.037   2.825
  682SOL    HW1 2123   1.880   1.952   2.789
  682SOL    HW2 2124   1.743   2.039   2.806
  683SOL     OW 2125   0.263   2.188   2.582
  683SOL    HW1 2126   0.184   2.239   2.548
  683SOL    HW2 2127   0.254   2.173   2.680
  684SOL     OW 2128   0.822   2.864   3.234
  684SOL    HW1 2129   0.862   2.863   3.142
  684SOL    HW2 2130   0.832   2.956   3.274
  685SOL     OW 2131   0.916   2.772   2.153
  685SOL    HW1 2132   0.979   2.810   2.085
  685SOL    HW2 2133   0.956   2.689   2.192
  686SOL     OW 2134   0.372   3.150   3.352
  686SOL    HW1 2135   0.359   3.243   3.318
  686SOL    HW2 2136   0.288   3.098   3.339
  687SOL     OW 2137   1.614   3.154   3.151
  687SOL    HW1 2138   1.674   3.157   3.231
  687SOL    HW2 2139   1.539   3.218   3.164
  688SOL     OW 2140   1.039   2.960   2.558
  688SOL    HW1 2141   0.969   2.913   2.612
  688SOL    HW2 2142   1.098   2.892   2.515
  689SOL     OW 2143   1.014   2.098   2.833
  689SOL    HW1 2144   1.006   2.062   2.740
  689SOL    HW2 2145   1.012   2.022   2.898
  690SOL     OW 2146   1.709   2.247   3.243
  690SOL    HW1 2147   1.782   2.316   3.247
  690SOL    HW2 2148   1.737   2.172   3.184
  691SOL     OW 2149   0.255   3.210   2.152
  691SOL    HW1 2150   0.159   3.211   2.125
  691SOL    HW2 2151   0.267   3.263   2.236
  692SOL     OW 2152   0.105   2.875   3.588
  692SOL    HW1 2153   0.028   2.842   3.642
  692SOL    HW2 2154   0.190   2.845   3.630
  693SOL     OW 2155   0.672   2.065   3.351
  693SOL    HW1 2156   0.762   2.049   3.311
  693SOL    HW2 2157   0.680   2.070   3.450
  694SOL     OW 2158   0.075   2.207   1.895
  694SOL    HW1 2159  -0.017   2.179   1.866
  694SOL    HW2 2160   0.106   2.284   1.839
  695SOL     OW 2161   1.440   2.718   3.260
  695SOL    HW1 2162   1.383   2.770   3.197
  695SOL    HW2 2163   1.536   2.730   3.236
  696SOL     OW 2164   0.072   2.028   2.180
  696SOL    HW1 2165   0.055   2.111   2.126
  696SOL    HW2 2166   0.162   1.991   2.158
  697SOL     OW 2167   1.183   3.197   1.981
  697SOL    HW1 2168   1.084   3.186   1.983
  697SOL    HW2 2169   1.217   3.212   2.074
  698SOL     OW 2170   0.613   2.704   3.293
  698SOL    HW1 2171   0.669   2.785   3.276
  698SOL    HW2 2172   0.672   2.624   3.296
  699SOL     OW 2173   0.716   2.427   3.570
  699SOL    HW1 2174   0.735   2.492   3.644
  699SOL    HW2 2175   0.776   2.347   3.579
  700SOL     OW 2176   0.390   3.603   3.422
  700SOL    HW1 2177   0.299   3.644   3.420
  700SOL    HW2 2178   0.383   3.509   3.454
  701SOL     OW 2179   1.674   2.745   3.116
  701SOL    HW1 2180   1.647   2.656   3.079
  701SOL    HW2 2181   1.675   2.813   3.043
  702SOL     OW 2182   1.225   2.187   2.311
  702SOL    HW1 2183   1.290   2.113   2.300
  702SOL    HW2 2184   1.245   2.237   2.395
  703SOL     OW 2185   0.594   2.607   2.514
  703SOL    HW1 2186   0.644   2.692   2.495
  703SOL    HW2 2187   0.506   2.609   2.466
  704SOL     OW 2188   1.777   2.204   3.504
  704SOL    HW1 2189   1.760   2.235   3.410
  704SOL    HW2 2190   1.693   2.167   3.542
  705SOL     OW 2191   1.730   2.796   3.379
  705SOL    HW1 2192   1.768   2.887   3.394
  705SOL    HW2 2193   1.722   2.779   3.280
  706SOL     OW 2194   0.859   3.236   1.878
  706SOL    HW1 2195   0.813   3.251   1.966
  706SOL    HW2 2196   0.903   3.321   1.848
  707SOL     OW 2197   0.859   2.818   2.723
  707SOL    HW1 2198   0.913   2.749   2.771
  707SOL    HW2 2199   0.827   2.887   2.789
  708SOL     OW 2200   1.083   2.846   1.949
  708SOL    HW1 2201   1.060   2.899   1.867
  708SOL    HW2 2202   1.164   2.790   1.930
  709SOL     OW 2203   0.079   3.102   2.515
  709SOL    HW1 2204   0.078   3.055   2.603
  709SOL    HW2 2205   0.161   3.074   2.464
  710SOL     OW 2206   0.672   3.253   3.486
  710SOL    HW1 2207   0.594   3.203   3.524
  710SOL    HW2 2208   0.669   3.348   3.517
  711SOL     OW 2209   1.824   2.054   3.089
  711SOL    HW1 2210   1.820   1.964   3.133
  711SOL    HW2 2211   1.827   2.043   2.990
  712SOL     OW 2212   0.428   2.286   2.382
  712SOL    HW1 2213   0.458   2.214   2.320
  712SOL    HW2 2214   0.389   2.246   2.465
  713SOL     OW 2215   1.705   3.349   2.966
  713SOL    HW1 2216   1.612   3.324   2.939
  713SOL    HW2 2217   1.731   3.299   3.048
  714SOL     OW 2218   0.317   2.409   3.142
  714SOL    HW1 2219   0.355   2.350   3.214
  714SOL    HW2 2220   0.357   2.383   3.054
  715SOL     OW 2221   1.424   2.076   2.974
  715SOL    HW1 2222   1.476   2.011   3.029
  715SOL    HW2 2223   1.375   2.139   3.035
  716SOL     OW 2224   1.001   1.896   3.016
  716SOL    HW1 2225   0.938   1.824   2.985
  716SOL    HW2 2226   1.094   1.860   3.016
  717SOL     OW 2227   0.770   3.192   2.163
  717SOL    HW1 2228   0.724   3.105   2.180
  717SOL    HW2 2229   0.861   3.189   2.204
  718SOL     OW 2230   0.618   3.429   3.146
  718SOL    HW1 2231   0.613   3.511   3.203
  718SOL    HW2 2232   0.707   3.426   3.101
  719SOL     OW 2233   1.300   2.315   2.553
  719SOL    HW1 2234   1.241   2.395   2.557
  719SOL    HW2 2235   1.315   2.280   2.646
  720SOL     OW 2236   1.593   2.083   2.744
  720SOL    HW1 2237   1.509   2.082   2.798
  720SOL    HW2 2238   1.595   2.166   2.688
  721SOL     OW 2239   0.039   2.939   2.162
  721SOL    HW1 2240   0.138   2.928   2.153
  721SOL    HW2 2241  -0.001   2.853   2.194
  722SOL     OW 2242   2.092   0.628   0.113
  722SOL    HW1 2243   1.999   0.626   0.150
  722SOL    HW2 2244   2.093   0.589   0.021
  723SOL     OW 2245   2.087   0.275   0.996
  723SOL    HW1 2246   2.122   0.258   1.088
  723SOL    HW2 2247   1.999   0.230   0.984
  724SOL     OW 2248   1.881   0.368   0.647
  724SOL    HW1 2249   1.799   0.411   0.686
  724SOL    HW2 2250   1.853   0.295   0.584
  725SOL     OW 2251   2.431   1.275   1.165
  725SOL    HW1 2252   2.338   1.268   1.128
  725SOL    HW2 2253   2.442   1.364   1.209
  726SOL     OW 2254   3.417   1.511   0.703
  726SOL    HW1 2255   3.360   1.495   0.784
  726SOL    HW2 2256   3.358   1.521   0.623
  727SOL     OW 2257   2.997   0.703   0.717
  727SOL    HW1 2258   3.054   0.781   0.692
  727SOL    HW2 2259   2.937   0.729   0.793
  728SOL     OW 2260   2.630   1.144   1.023
  728SOL    HW1 2261   2.552   1.161   1.083
  728SOL    HW2 2262   2.664   1.231   0.987
  729SOL     OW 2263   2.712   0.798   1.823
  729SOL    HW1 2264   2.708   0.874   1.888
  729SOL    HW2 2265   2.734   0.834   1.732
  730SOL     OW 2266   2.547   1.012   0.665
  730SOL    HW1 2267   2.616   0.996   0.735
  730SOL    HW2 2268   2.474   1.069   0.703
  731SOL     OW 2269   2.548   1.161   1.803
  731SOL    HW1 2270   2.608   1.240   1.817
  731SOL    HW2 2271   2.462   1.192   1.762
  732SOL     OW 2272   3.322   1.505   1.339
  732SOL    HW1 2273   3.346   1.599   1.365
  732SOL    HW2 2274   3.306   1.451   1.421
  733SOL     OW 2275   2.300   0.392   1.499
  733SOL    HW1 2276   2.382   0.336   1.508
  733SOL    HW2 2277   2.219   0.334   1.503
  734SOL     OW 2278   2.093   1.713   0.483
  734SOL    HW1 2279   2.127   1.790   0.537
  734SOL    HW2 2280   2.137   1.713   0.393
  735SOL     OW 2281   2.989   1.341   1.690
  735SOL    HW1 2282   3.036   1.341   1.778
  735SOL    HW2 2283   2.941   1.254   1.679
  736SOL     OW 2284   2.092   1.434   0.538
  736SOL    HW1 2285   2.066   1.530   0.538
  736SOL    HW2 2286   2.021   1.380   0.583
  737SOL     OW 2287   2.102   1.091   0.886
  737SOL    HW1 2288   2.116   1.007   0.938
  737SOL    HW2 2289   2.047   1.155   0.941
  738SOL     OW 2290   2.482   1.786   1.439
  738SOL    HW1 2291   2.390   1.769   1.474
  738SOL    HW2 2292   2.510   1.878   1.465
  739SOL     OW 2293   2.468   0.964   0.123
  739SOL    HW1 2294   2.475   1.048   0.069
  739SOL    HW2 2295   2.514   0.977   0.211
  740SOL     OW 2296   3.456   0.114   1.480
  740SOL    HW1 2297   3.438   0.181   1.408
  740SOL    HW2 2298   3.453   0.160   1.569
  741SOL     OW 2299   1.984   0.643   0.563
  741SOL    HW1 2300   1.939   0.555   0.580
  741SOL    HW2 2301   1.983   0.697   0.647
  742SOL     OW 2302   1.889   1.596   0.117
  742SOL    HW1 2303   1.870   1.500   0.138
  742SOL    HW2 2304   1.856   1.654   0.192
  743SOL     OW 2305   3.551   0.922   0.612
  743SOL    HW1 2306   3.646   0.893   0.620
  743SOL    HW2 2307   3.543   0.987   0.537
  744SOL     OW 2308   1.975   0.737   1.597
  744SOL    HW1 2309   2.063   0.724   1.642
  744SOL    HW2 2310   1.962   0.834   1.575
  745SOL     OW 2311   2.475   1.365   0.726
  745SOL    HW1 2312   2.426   1.278   0.735
  745SOL    HW2 2313   2.452   1.408   0.639
  746SOL     OW 2314   3.155   1.228   1.423
  746SOL    HW1 2315   3.192   1.155   1.365
  746SOL    HW2 2316   3.207   1.233   1.508
  747SOL     OW 2317   2.671   0.004   0.502
  747SOL    HW1 2318   2.711   0.095   0.493
  747SOL    HW2 2319   2.571   0.012   0.508
  748SOL     OW 2320   2.059   0.976   1.264
  748SOL    HW1 2321   2.148   0.931   1.250
  748SOL    HW2 2322   1.986   0.911   1.245
  749SOL     OW 2323   3.049   1.792   1.616
  749SOL    HW1 2324   3.073   1.852   1.540
  749SOL    HW2 2325   3.056   1.697   1.586
  750SOL     OW 2326   2.179   0.251   1.801
  750SOL    HW1 2327   2.250   0.322   1.807
  750SOL    HW2 2328   2.091   0.290   1.829
  751SOL     OW 2329   3.328   1.417   0.953
  751SOL    HW1 2330   3.269   1.423   1.033
  751SOL    HW2 2331   3.313   1.329   0.907
  752SOL     OW 2332   3.529   1.714   0.572
  752SOL    HW1 2333   3.488   1.691   0.484
  752SOL    HW2 2334   3.511   1.640   0.637
  753SOL     OW 2335   2.460   0.729   0.270
  753SOL    HW1 2336   2.484   0.798   0.202
  753SOL    HW2 2337   2.382   0.762   0.324
  754SOL     OW 2338   3.143   0.345   0.944
  754SOL    HW1 2339   3.057   0.295   0.931
  754SOL    HW2 2340   3.205   0.291   1.000
  755SOL     OW 2341   2.669   0.605   1.465
  755SOL    HW1 2342   2.622   0.602   1.554
  755SOL    HW2 2343   2.618   0.550   1.399
  756SOL     OW 2344   3.256   0.469   1.674
  756SOL    HW1 2345   3.236   0.512   1.762
  756SOL    HW2 2346   3.334   0.407   1.683
  757SOL     OW 2347   2.835   0.890   1.572
  757SOL    HW1 2348   2.881   0.806   1.543
  757SOL    HW2 2349   2.779   0.924   1.497
  758SOL     OW 2350   2.853   0.410   1.242
  758SOL    HW1 2351   2.776   0.444   1.296
  758SOL    HW2 2352   2.819   0.359   1.163
  759SOL     OW 2353   2.903   0.701   0.429
  759SOL    HW1 2354   2.929   0.697   0.525
  759SOL    HW2 2355   2.818   0.650   0.415
  760SOL     OW 2356   1.938   0.811   0.789
  760SOL    HW1 2357   2.037   0.799   0.798
  760SOL    HW2 2358   1.914   0.906   0.810
  761SOL     OW 2359   2.727   0.348   0.195
  761SOL    HW1 2360   2.786   0.411   0.146
  761SOL    HW2 2361   2.746   0.254   0.166
  762SOL     OW 2362   3.224   1.144   0.545
  762SOL    HW1 2363   3.307   1.115   0.497
  762SOL    HW2 2364   3.175   1.211   0.489
  763SOL     OW 2365   2.412   0.196   0.885
  763SOL    HW1 2366   2.407   0.191   0.985
  763SOL    HW2 2367   2.414   0.292   0.856
  764SOL     OW 2368   2.870   1.456   0.477
  764SOL    HW1 2369   2.824   1.528   0.425
  764SOL    HW2 2370   2.866   1.476   0.575
  765SOL     OW 2371   2.213   1.801   0.853
  765SOL    HW1 2372   2.263   1.715   0.859
  765SOL    HW2 2373   2.278   1.878   0.850
  766SOL     OW 2374   3.089   1.550   1.506
  766SOL    HW1 2375   3.095   1.473   1.570
  766SOL    HW2 2376   3.037   1.524   1.426
  767SOL     OW 2377   2.183   0.943   0.242
  767SOL    HW1 2378   2.265   0.982   0.200
  767SOL    HW2 2379   2.156   0.861   0.193
  768SOL     OW 2380   2.973   1.776   0.237
  768SOL    HW1 2381   2.913   1.714   0.287
  768SOL    HW2 2382   3.004   1.732   0.152
  769SOL     OW 2383   2.064   0.285   1.498
  769SOL    HW1 2384   1.984   0.345   1.485
  769SOL    HW2 2385   2.054   0.236   1.584
  770SOL     OW 2386   2.326   1.743   0.323
  770SOL    HW1 2387   2.359   1.782   0.409
  770SOL    HW2 2388   2.402   1.736   0.258
  771SOL     OW 2389   3.262   0.107   0.426
  771SOL    HW1 2390   3.238   0.070   0.336
  771SOL    HW2 2391   3.361   0.123   0.430
  772SOL     OW 2392   2.111   1.785   1.241
  772SOL    HW1 2393   2.168   1.720   1.291
  772SOL    HW2 2394   2.095   1.752   1.148
  773SOL     OW 2395   2.802   1.698   0.904
  773SOL    HW1 2396   2.882   1.641   0.925
  773SOL    HW2 2397   2.753   1.658   0.827
  774SOL     OW 2398   2.244   0.700   0.480
  774SOL    HW1 2399   2.289   0.610   0.477
  774SOL    HW2 2400   2.150   0.689   0.513
  775SOL     OW 2401   2.476   0.122   0.117
  775SOL    HW1 2402   2.574   0.100   0.124
  775SOL    HW2 2403   2.445   0.105   0.024
  776SOL     OW 2404   2.643   0.264   1.749
  776SOL    HW1 2405   2.710   0.203   1.792
  776SOL    HW2 2406   2.570   0.283   1.814
  777SOL     OW 2407   2.750   1.514   1.195
  777SOL    HW1 2408   2.727   1.489   1.101
  777SOL    HW2 2409   2.811   1.445   1.234
  778SOL     OW 2410   3.213   0.590   1.433
  778SOL    HW1 2411   3.241   0.547   1.518
  778SOL    HW2 2412   3.238   0.686   1.434
  779SOL     OW 2413   2.665   1.402   0.924
  779SOL    HW1 2414   2.755   1.416   0.882
  779SOL    HW2 2415   2.594   1.404   0.853
  780SOL     OW 2416   2.784   0.503   0.899
  780SOL    HW1 2417   2.759   0.494   0.803
  780SOL    HW2 2418   2.832   0.421   0.930
  781SOL     OW 2419   2.401   0.064   0.512
  781SOL    HW1 2420   2.320   0.065   0.570
  781SOL    HW2 2421   2.404   0.147   0.457
  782SOL     OW 2422   3.296   1.188   0.041
  782SOL    HW1 2423   3.328   1.112   0.098
  782SOL    HW2 2424   3.204   1.215   0.071
  783SOL     OW 2425   2.159   0.035   0.171
  783SOL    HW1 2426   2.208   0.119   0.150
  783SOL    HW2 2427   2.221  -0.030   0.216
  784SOL     OW 2428   2.797   0.236   0.480
  784SOL    HW1 2429   2.749   0.277   0.402
  784SOL    HW2 2430   2.896   0.234   0.461
  785SOL     OW 2431   2.938   0.683   1.464
  785SOL    HW1 2432   2.858   0.622   1.467
  785SOL    HW2 2433   3.019   0.630   1.440
  786SOL     OW 2434   3.089   1.570   0.793
  786SOL    HW1 2435   3.110   1.644   0.728
  786SOL    HW2 2436   3.157   1.570   0.866
  787SOL     OW 2437   2.321   1.152   0.741
  787SOL    HW1 2438   2.250   1.125   0.806
  787SOL    HW2 2439   2.295   1.124   0.648
  788SOL     OW 2440   3.133   1.797   0.591
  788SOL    HW1 2441   3.177   1.861   0.527
  788SOL    HW2 2442   3.083   1.849   0.661
  789SOL     OW 2443   2.894   0.549   0.016
  789SOL    HW1 2444   2.853   0.631  -0.023
  789SOL    HW2 2445   2.958   0.575   0.089
  790SOL     OW 2446   1.940   0.556   1.386
  790SOL    HW1 2447   2.032   0.555   1.345
  790SOL    HW2 2448   1.934   0.630   1.453
  791SOL     OW 2449   2.423   0.222   1.147
  791SOL    HW1 2450   2.461   0.138   1.184
  791SOL    HW2 2451   2.335   0.241   1.191
  792SOL     OW 2452   2.728   0.454   0.642
  792SOL    HW1 2453   2.696   0.526   0.580
  792SOL    HW2 2454   2.752   0.373   0.589
  793SOL     OW 2455   2.879   0.039   0.753
  793SOL    HW1 2456   2.807   0.044   0.684
  793SOL    HW2 2457   2.855  -0.030   0.822
  794SOL     OW 2458   3.291   1.173   0.867
  794SOL    HW1 2459   3.236   1.089   0.860
  794SOL    HW2 2460   3.317   1.202   0.775
  795SOL     OW 2461   2.350   1.385   0.174
  795SOL    HW1 2462   2.263   1.370   0.221
  795SOL    HW2 2463   2.333   1.411   0.079
  796SOL     OW 2464   3.252   0.575   0.078
  796SOL    HW1 2465   3.198   0.554   0.159
  796SOL    HW2 2466   3.343   0.534   0.087
  797SOL     OW 2467   2.389   0.256   0.328
  797SOL    HW1 2468   2.416   0.197   0.253
  797SOL    HW2 2469   2.389   0.351   0.297
  798SOL     OW 2470   2.926   1.347   1.340
  798SOL    HW1 2471   2.846   1.324   1.395
  798SOL    HW2 2472   3.009   1.321   1.389
  799SOL     OW 2473   3.454   1.629   1.625
  799SOL    HW1 2474   3.481   1.663   1.535
  799SOL    HW2 2475   3.533   1.591   1.671
  800SOL     OW 2476   2.973   1.195   1.100
  800SOL    HW1 2477   2.933   1.239   1.181
  800SOL    HW2 2478   2.932   1.232   1.017
  801SOL     OW 2479   2.777   0.089   1.402
  801SOL    HW1 2480   2.802   0.069   1.307
  801SOL    HW2 2481   2.849   0.145   1.444
  802SOL     OW 2482   2.842   1.116   1.719
  802SOL    HW1 2483   2.743   1.122   1.729
  802SOL    HW2 2484   2.865   1.036   1.663
  803SOL     OW 2485   2.567   1.050   0.368
  803SOL    HW1 2486   2.553   1.057   0.467
  803SOL    HW2 2487   2.651   0.999   0.350
  804SOL     OW 2488   2.272   0.813   1.251
  804SOL    HW1 2489   2.358   0.825   1.301
  804SOL    HW2 2490   2.230   0.726   1.278
  805SOL     OW 2491   3.136   0.386   1.262
  805SOL    HW1 2492   3.157   0.460   1.326
  805SOL    HW2 2493   3.047   0.403   1.219
  806SOL     OW 2494   2.229   1.100   0.501
  806SOL    HW1 2495   2.222   1.183   0.445
  806SOL    HW2 2496   2.233   1.020   0.441
  807SOL     OW 2497   2.428   0.537   0.865
  807SOL    HW1 2498   2.440   0.603   0.791
  807SOL    HW2 2499   2.474   0.571   0.948
  808SOL     OW 2500   3.114   1.348   0.388
  808SOL    HW1 2501   3.164   1.425   0.428
  808SOL    HW2 2502   3.019   1.350   0.420
  809SOL     OW 2503   3.134   1.445   1.142
  809SOL    HW1 2504   3.181   1.458   1.229
  809SOL    HW2 2505   3.068   1.371   1.151
  810SOL     OW 2506   2.264   0.751   1.598
  810SOL    HW1 2507   2.332   0.806   1.551
  810SOL    HW2 2508   2.304   0.663   1.625
  811SOL     OW 2509   2.875   0.105   1.770
  811SOL    HW1 2510   2.881   0.190   1.718
  811SOL    HW2 2511   2.907   0.029   1.713
  812SOL     OW 2512   2.366   0.050   1.740
  812SOL    HW1 2513   2.324  -0.007   1.670
  812SOL    HW2 2514   2.300   0.119   1.772
  813SOL     OW 2515   2.435   0.870   1.029
  813SOL    HW1 2516   2.479   0.959   1.020
  813SOL    HW2 2517   2.372   0.870   1.106
  814SOL     OW 2518   3.222   0.862   1.045
  814SOL    HW1 2519   3.147   0.862   0.979
  814SOL    HW2 2520   3.259   0.770   1.054
  815SOL     OW 2521   3.071   0.525   0.275
  815SOL    HW1 2522   3.084   0.441   0.329
  815SOL    HW2 2523   3.042   0.599   0.335
  816SOL     OW 2524   2.169   0.213   1.231
  816SOL    HW1 2525   2.146   0.250   1.321
  816SOL    HW2 2526   2.139   0.118   1.225
  817SOL     OW 2527   1.899   1.310   1.282
  817SOL    HW1 2528   1.952   1.261   1.350
  817SOL    HW2 2529   1.921   1.408   1.287
  818SOL     OW 2530   2.594   0.634   1.064
  818SOL    HW1 2531   2.653   0.608   0.988
  818SOL    HW2 2532   2.566   0.730   1.053
  819SOL     OW 2533   2.169   0.063   0.618
  819SOL    HW1 2534   2.158   0.157   0.651
  819SOL    HW2 2535   2.164   0.000   0.695
  820SOL     OW 2536   3.484   0.367   0.374
  820SOL    HW1 2537   3.486   0.291   0.438
  820SOL    HW2 2538   3.436   0.444   0.414
  821SOL     OW 2539   2.885   0.766   0.966
  821SOL    HW1 2540   2.900   0.787   1.062
  821SOL    HW2 2541   2.855   0.671   0.957
  822SOL     OW 2542   2.842   1.573   1.700
  822SOL    HW1 2543   2.822   1.617   1.612
  822SOL    HW2 2544   2.881   1.482   1.684
  823SOL     OW 2545   2.212   0.898   1.804
  823SOL    HW1 2546   2.288   0.942   1.852
  823SOL    HW2 2547   2.247   0.851   1.722
  824SOL     OW 2548   3.165   0.838   0.042
  824SOL    HW1 2549   3.199   0.745   0.057
  824SOL    HW2 2550   3.183   0.865  -0.053
  825SOL     OW 2551   2.930   1.333   0.849
  825SOL    HW1 2552   2.937   1.249   0.794
  825SOL    HW2 2553   2.992   1.402   0.813
  826SOL     OW 2554   2.181   0.810   0.949
  826SOL    HW1 2555   2.274   0.846   0.954
  826SOL    HW2 2556   2.175   0.725   1.001
  827SOL     OW 2557   2.201   0.509   1.006
  827SOL    HW1 2558   2.149   0.426   0.989
  827SOL    HW2 2559   2.278   0.514   0.942
  828SOL     OW 2560   3.000   0.380   1.678
  828SOL    HW1 2561   2.955   0.443   1.742
  828SOL    HW2 2562   3.093   0.411   1.661
  829SOL     OW 2563   3.022   0.207   1.477
  829SOL    HW1 2564   3.022   0.271   1.554
  829SOL    HW2 2565   3.050   0.255   1.394
  830SOL     OW 2566   1.870   1.326   0.200
  830SOL    HW1 2567   1.777   1.347   0.169
  830SOL    HW2 2568   1.880   1.227   0.213
  831SOL     OW 2569   1.950   1.801   0.927
  831SOL    HW1 2570   1.908   1.715   0.900
  831SOL    HW2 2571   2.044   1.804   0.893
  832SOL     OW 2572   2.366   1.568   0.910
  832SOL    HW1 2573   2.432   1.642   0.919
  832SOL    HW2 2574   2.410   1.489   0.868
  833SOL     OW 2575   2.864   0.796   1.238
  833SOL    HW1 2576   2.905   0.764   1.324
  833SOL    HW2 2577   2.768   0.769   1.235
  834SOL     OW 2578   1.902   0.544   1.114
  834SOL    HW1 2579   1.987   0.511   1.073
  834SOL    HW2 2580   1.915   0.559   1.212
  835SOL     OW 2581   2.051   0.520   1.722
  835SOL    HW1 2582   2.110   0.480   1.652
  835SOL    HW2 2583   1.993   0.591   1.681
  836SOL     OW 2584   3.231   0.950   1.660
  836SOL    HW1 2585   3.270   1.039   1.680
  836SOL    HW2 2586   3.241   0.930   1.563
  837SOL     OW 2587   2.677   0.572   0.325
  837SOL    HW1 2588   2.684   0.483   0.279
  837SOL    HW2 2589   2.583   0.606   0.317
  838SOL     OW 2590   2.533   0.464   1.269
  838SOL    HW1 2591   2.499   0.375   1.239
  838SOL    HW2 2592   2.559   0.518   1.189
  839SOL     OW 2593   2.792   1.678   1.465
  839SOL    HW1 2594   2.768   1.660   1.370
  839SOL    HW2 2595   2.822   1.772   1.475
  840SOL     OW 2596   2.335   0.500   0.191
  840SOL    HW1 2597   2.396   0.580   0.195
  840SOL    HW2 2598   2.240   0.531   0.198
  841SOL     OW 2599   2.021   1.137   1.466
  841SOL    HW1 2600   2.043   1.076   1.542
  841SOL    HW2 2601   2.031   1.088   1.380
  842SOL     OW 2602   3.209   1.059   1.234
  842SOL    HW1 2603   3.233   0.996   1.160
  842SOL    HW2 2604   3.119   1.099   1.216
  843SOL     OW 2605   3.164   0.855   0.309
  843SOL    HW1 2606   3.078   0.824   0.351
  843SOL    HW2 2607   3.160   0.841   0.210
  844SOL     OW 2608   3.114   1.731   1.128
  844SOL    HW1 2609   3.198   1.736   1.074
  844SOL    HW2 2610   3.091   1.635   1.146
  845SOL     OW 2611   1.945   1.258   1.022
  845SOL    HW1 2612   1.940   1.257   1.122
  845SOL    HW2 2613   1.862   1.217   0.984
  846SOL     OW 2614   2.550   1.662   1.716
  846SOL    HW1 2615   2.494   1.743   1.725
  846SOL    HW2 2616   2.602   1.666   1.630
  847SOL     OW 2617   2.765   0.086   0.133
  847SOL    HW1 2618   2.816   0.087   0.047
  847SOL    HW2 2619   2.821   0.044   0.204
  848SOL     OW 2620   3.588   0.135   0.523
  848SOL    HW1 2621   3.661   0.118   0.456
  848SOL    HW2 2622   3.557   0.048   0.561
  849SOL     OW 2623   3.250   1.573   0.477
  849SOL    HW1 2624   3.317   1.585   0.403
  849SOL    HW2 2625   3.210   1.662   0.500
  850SOL     OW 2626   3.142   0.927   0.672
  850SOL    HW1 2627   3.202   0.846   0.674
  850SOL    HW2 2628   3.182   0.996   0.612
  851SOL     OW 2629   2.692   1.273   1.422
  851SOL    HW1 2630   2.687   1.306   1.517
  851SOL    HW2 2631   2.606   1.292   1.376
  852SOL     OW 2632   2.534   1.616   0.154
  852SOL    HW1 2633   2.543   1.626   0.055
  852SOL    HW2 2634   2.494   1.527   0.175
  853SOL     OW 2635   2.125   0.326   0.720
  853SOL    HW1 2636   2.046   0.377   0.686
  853SOL    HW2 2637   2.116   0.311   0.818
  854SOL     OW 2638   3.056   1.612   0.031
  854SOL    HW1 2639   3.062   1.519   0.068
  854SOL    HW2 2640   2.997   1.612  -0.049
  855SOL     OW 2641   2.684   1.002   1.372
  855SOL    HW1 2642   2.724   1.001   1.280
  855SOL    HW2 2643   2.694   1.094   1.412
  856SOL     OW 2644   2.778   0.910   0.291
  856SOL    HW1 2645   2.841   0.948   0.223
  856SOL    HW2 2646   2.818   0.827   0.330
  857SOL     OW 2647   2.901   1.098   0.696
  857SOL    HW1 2648   2.831   1.051   0.750
  857SOL    HW2 2649   2.960   1.030   0.653
  858SOL     OW 2650   2.876   0.236   0.971
  858SOL    HW1 2651   2.868   0.200   0.878
  858SOL    HW2 2652   2.874   0.160   1.036
  859SOL     OW 2653   2.452   1.487   0.491
  859SOL    HW1 2654   2.494   1.429   0.421
  859SOL    HW2 2655   2.408   1.566   0.447
  860SOL     OW 2656   2.117   1.348   0.290
  860SOL    HW1 2657   2.021   1.349   0.263
  860SOL    HW2 2658   2.129   1.401   0.374
  861SOL     OW 2659   1.967   1.013   1.726
  861SOL    HW1 2660   1.890   0.980   1.780
  861SOL    HW2 2661   2.052   0.983   1.768
  862SOL     OW 2662   2.534   0.203   1.489
  862SOL    HW1 2663   2.624   0.187   1.449
  862SOL    HW2 2664   2.542   0.208   1.588
  863SOL     OW 2665   3.302   0.856   1.398
  863SOL    HW1 2666   3.245   0.908   1.335
  863SOL    HW2 2667   3.398   0.868   1.374
  864SOL     OW 2668   1.934   0.166   0.318
  864SOL    HW1 2669   1.917   0.249   0.264
  864SOL    HW2 2670   2.024   0.129   0.296
  865SOL     OW 2671   3.045   1.335   0.119
  865SOL    HW1 2672   2.946   1.324   0.121
  865SOL    HW2 2673   3.079   1.350   0.212
  866SOL     OW 2674   2.475   0.842   1.431
  866SOL    HW1 2675   2.531   0.923   1.414
  866SOL    HW2 2676   2.534   0.762   1.434
  867SOL     OW 2677   3.355   1.767   0.959
  867SOL    HW1 2678   3.388   1.831   0.890
  867SOL    HW2 2679   3.421   1.761   1.034
  868SOL     OW 2680   2.578   0.565   1.708
  868SOL    HW1 2681   2.597   0.630   1.782
  868SOL    HW2 2682   2.638   0.485   1.717
  869SOL     OW 2683   3.312   1.220   1.633
  869SOL    HW1 2684   3.303   1.210   1.732
  869SOL    HW2 2685   3.408   1.213   1.607
  870SOL     OW 2686   3.087   0.325   0.449
  870SOL    HW1 2687   3.152   0.251   0.438
  870SOL    HW2 2688   3.107   0.375   0.533
  871SOL     OW 2689   2.456   0.745   0.652
  871SOL    HW1 2690   2.506   0.830   0.633
  871SOL    HW2 2691   2.368   0.747   0.604
  872SOL     OW 2692   2.721   1.374   0.016
  872SOL    HW1 2693   2.675   1.389   0.104
  872SOL    HW2 2694   2.765   1.459  -0.014
  873SOL     OW 2695   2.523   1.790   0.953
  873SOL    HW1 2696   2.477   1.878   0.940
  873SOL    HW2 2697   2.622   1.802   0.946
  874SOL     OW 2698   2.721   0.956   0.861
  874SOL    HW1 2699   2.775   0.887   0.909
  874SOL    HW2 2700   2.689   1.025   0.927
  875SOL     OW 2701   2.945   0.984   0.087
  875SOL    HW1 2702   2.922   1.037   0.005
  875SOL    HW2 2703   3.026   0.928   0.068
  876SOL     OW 2704   1.941   1.240   0.653
  876SOL    HW1 2705   1.940   1.193   0.741
  876SOL    HW2 2706   2.023   1.212   0.602
  877SOL     OW 2707   2.534   1.391   1.624
  877SOL    HW1 2708   2.456   1.341   1.662
  877SOL    HW2 2709   2.531   1.486   1.655
  878SOL     OW 2710   2.290   0.424   0.520
  878SOL    HW1 2711   2.320   0.352   0.458
  878SOL    HW2 2712   2.251   0.384   0.603
  879SOL     OW 2713   2.179   0.547   1.280
  879SOL    HW1 2714   2.217   0.488   1.352
  879SOL    HW2 2715   2.219   0.521   1.192
  880SOL     OW 2716   2.674   1.586   0.687
  880SOL    HW1 2717   2.706   1.596   0.593
  880SOL    HW2 2718   2.595   1.524   0.689
  881SOL     OW 2719   3.286   0.214   1.112
  881SOL    HW1 2720   3.338   0.149   1.167
  881SOL    HW2 2721   3.237   0.277   1.173
  882SOL     OW 2722   2.863   0.034   1.154
  882SOL    HW1 2723   2.800  -0.038   1.123
  882SOL    HW2 2724   2.956  -0.002   1.154
  883SOL     OW 2725   2.632   1.330   0.301
  883SOL    HW1 2726   2.586   1.243   0.318
  883SOL    HW2 2727   2.723   1.327   0.342
  884SOL     OW 2728   2.480   1.567   1.284
  884SOL    HW1 2729   2.475   1.649   1.341
  884SOL    HW2 2730   2.569   1.564   1.239
  885SOL     OW 2731   3.214   0.052   0.168
  885SOL    HW1 2732   3.249   0.011   0.084
  885SOL    HW2 2733   3.124   0.014   0.188
  886SOL     OW 2734   3.162   0.453   0.691
  886SOL    HW1 2735   3.103   0.533   0.695
  886SOL    HW2 2736   3.177   0.418   0.784
  887SOL     OW 2737   3.455   0.221   0.882
  887SOL    HW1 2738   3.371   0.220   0.936
  887SOL    HW2 2739   3.457   0.304   0.826
  888SOL     OW 2740   1.901   1.077   0.300
  888SOL    HW1 2741   2.000   1.066   0.291
  888SOL    HW2 2742   1.861   0.991   0.332
  889SOL     OW 2743   2.737   1.646   0.337
  889SOL    HW1 2744   2.660   1.611   0.283
  889SOL    HW2 2745   2.705   1.717   0.399
  890SOL     OW 2746   2.092   0.628   1.975
  890SOL    HW1 2747   1.999   0.626   2.012
  890SOL    HW2 2748   2.093   0.589   1.883
  891SOL     OW 2749   2.087   0.275   2.858
  891SOL    HW1 2750   2.122   0.258   2.950
  891SOL    HW2 2751   1.999   0.230   2.846
  892SOL     OW 2752   1.881   0.368   2.509
  892SOL    HW1 2753   1.799   0.411   2.548
  892SOL    HW2 2754   1.853   0.295   2.446
  893SOL     OW 2755   2.431   1.275   3.027
  893SOL    HW1 2756   2.338   1.268   2.990
  893SOL    HW2 2757   2.442   1.364   3.071
  894SOL     OW 2758   3.417   1.511   2.565
  894SOL    HW1 2759   3.360   1.495   2.646
  894SOL    HW2 2760   3.358   1.521   2.485
  895SOL     OW 2761   2.997   0.703   2.579
  895SOL    HW1 2762   3.054   0.781   2.554
  895SOL    HW2 2763   2.937   0.729   2.655
  896SOL     OW 2764   2.630   1.144   2.885
  896SOL    HW1 2765   2.552   1.161   2.945
  896SOL    HW2 2766   2.664   1.231   2.849
  897SOL     OW 2767   2.547   1.012   2.527
  897SOL    HW1 2768   2.616   0.996   2.597
  897SOL    HW2 2769   2.474   1.069   2.565
  898SOL     OW 2770   2.197   1.435   2.923
  898SOL    HW1 2771   2.119   1.404   2.870
  898SOL    HW2 2772   2.255   1.493   2.866
  899SOL     OW 2773   3.322   1.505   3.201
  899SOL    HW1 2774   3.346   1.599   3.227
  899SOL    HW2 2775   3.306   1.451   3.283
  900SOL     OW 2776   2.300   0.392   3.361
  900SOL    HW1 2777   2.382   0.336   3.370
  900SOL    HW2 2778   2.219   0.334   3.365
  901SOL     OW 2779   2.093   1.713   2.345
  901SOL    HW1 2780   2.127   1.790   2.399
  901SOL    HW2 2781   2.137   1.713   2.255
  902SOL     OW 2782   2.092   1.434   2.400
  902SOL    HW1 2783   2.066   1.530   2.400
  902SOL    HW2 2784   2.021   1.380   2.445
  903SOL     OW 2785   2.102   1.091   2.748
  903SOL    HW1 2786   2.116   1.007   2.800
  903SOL    HW2 2787   2.047   1.155   2.803
  904SOL     OW 2788   2.482   1.786   3.301
  904SOL    HW1 2789   2.390   1.769   3.336
  904SOL    HW2 2790   2.510   1.878   3.327
  905SOL     OW 2791   2.468   0.964   1.985
  905SOL    HW1 2792   2.475   1.048   1.931
  905SOL    HW2 2793   2.514   0.977   2.073
  906SOL     OW 2794   3.456   0.114   3.342
  906SOL    HW1 2795   3.438   0.181   3.270
  906SOL    HW2 2796   3.453   0.160   3.431
  907SOL     OW 2797   1.984   0.643   2.425
  907SOL    HW1 2798   1.939   0.555   2.442
  907SOL    HW2 2799   1.983   0.697   2.509
  908SOL     OW 2800   3.551   0.922   2.474
  908SOL    HW1 2801   3.646   0.893   2.482
  908SOL    HW2 2802   3.543   0.987   2.399
  909SOL     OW 2803   2.475   1.365   2.588
  909SOL    HW1 2804   2.426   1.278   2.597
  909SOL    HW2 2805   2.452   1.408   2.501
  910SOL     OW 2806   3.155   1.228   3.285
  910SOL    HW1 2807   3.192   1.155   3.227
  910SOL    HW2 2808   3.207   1.233   3.370
  911SOL     OW 2809   2.671   0.004   2.364
  911SOL    HW1 2810   2.711   0.095   2.355
  911SOL    HW2 2811   2.571   0.012   2.370
  912SOL     OW 2812   2.059   0.976   3.126
  912SOL    HW1 2813   2.148   0.931   3.112
  912SOL    HW2 2814   1.986   0.911   3.107
  913SOL     OW 2815   3.328   1.417   2.815
  913SOL    HW1 2816   3.269   1.423   2.895
  913SOL    HW2 2817   3.313   1.329   2.769
  914SOL     OW 2818   3.529   1.714   2.434
  914SOL    HW1 2819   3.488   1.691   2.346
  914SOL    HW2 2820   3.511   1.640   2.499
  915SOL     OW 2821   2.460   0.729   2.132
  915SOL    HW1 2822   2.484   0.798   2.064
  915SOL    HW2 2823   2.382   0.762   2.186
  916SOL     OW 2824   3.143   0.345   2.806
  916SOL    HW1 2825   3.057   0.295   2.793
  916SOL    HW2 2826   3.205   0.291   2.862
  917SOL     OW 2827   2.669   0.605   3.327
  917SOL    HW1 2828   2.622   0.602   3.416
  917SOL    HW2 2829   2.618   0.550   3.261
  918SOL     OW 2830   2.835   0.890   3.434
  918SOL    HW1 2831   2.881   0.806   3.405
  918SOL    HW2 2832   2.779   0.924   3.359
  919SOL     OW 2833   2.853   0.410   3.104
  919SOL    HW1 2834   2.776   0.444   3.158
  919SOL    HW2 2835   2.819   0.359   3.025
  920SOL     OW 2836   2.903   0.701   2.291
  920SOL    HW1 2837   2.929   0.697   2.387
  920SOL    HW2 2838   2.818   0.650   2.277
  921SOL     OW 2839   1.938   0.811   2.651
  921SOL    HW1 2840   2.037   0.799   2.660
  921SOL    HW2 2841   1.914   0.906   2.672
  922SOL     OW 2842   1.992   1.821   3.433
  922SOL    HW1 2843   1.982   1.806   3.532
  922SOL    HW2 2844   1.906   1.857   3.397
  923SOL     OW 2845   2.727   0.348   2.057
  923SOL    HW1 2846   2.786   0.411   2.008
  923SOL    HW2 2847   2.746   0.254   2.028
  924SOL     OW 2848   3.224   1.144   2.407
  924SOL    HW1 2849   3.307   1.115   2.359
  924SOL    HW2 2850   3.175   1.211   2.351
  925SOL     OW 2851   2.412   0.196   2.747
  925SOL    HW1 2852   2.407   0.191   2.847
  925SOL    HW2 2853   2.414   0.292   2.718
  926SOL     OW 2854   2.870   1.456   2.339
  926SOL    HW1 2855   2.824   1.528   2.287
  926SOL    HW2 2856   2.866   1.476   2.437
  927SOL     OW 2857   2.213   1.801   2.715
  927SOL    HW1 2858   2.263   1.715   2.721
  927SOL    HW2 2859   2.278   1.878   2.712
  928SOL     OW 2860   2.183   0.943   2.104
  928SOL    HW1 2861   2.265   0.982   2.062
  928SOL    HW2 2862   2.156   0.861   2.055
  929SOL     OW 2863   2.973   1.776   2.099
  929SOL    HW1 2864   2.913   1.714   2.149
  929SOL    HW2 2865   3.004   1.732   2.014
  930SOL     OW 2866   2.064   0.285   3.360
  930SOL    HW1 2867   1.984   0.345   3.347
  930SOL    HW2 2868   2.054   0.236   3.446
  931SOL     OW 2869   2.326   1.743   2.185
  931SOL    HW1 2870   2.359   1.782   2.271
  931SOL    HW2 2871   2.402   1.736   2.120
  932SOL     OW 2872   3.262   0.107   2.288
  932SOL    HW1 2873   3.238   0.070   2.198
  932SOL    HW2 2874   3.361   0.123   2.292
  933SOL     OW 2875   2.111   1.785   3.103
  933SOL    HW1 2876   2.168   1.720   3.153
  933SOL    HW2 2877   2.095   1.752   3.010
  934SOL     OW 2878   2.802   1.698   2.766
  934SOL    HW1 2879   2.882   1.641   2.787
  934SOL    HW2 2880   2.753   1.658   2.689
  935SOL     OW 2881   2.244   0.700   2.342
  935SOL    HW1 2882   2.289   0.610   2.339
  935SOL    HW2 2883   2.150   0.689   2.375
  936SOL     OW 2884   2.476   0.122   1.979
  936SOL    HW1 2885   2.574   0.100   1.986
  936SOL    HW2 2886   2.445   0.105   1.886
  937SOL     OW 2887   2.750   1.514   3.057
  937SOL    HW1 2888   2.727   1.489   2.963
  937SOL    HW2 2889   2.811   1.445   3.096
  938SOL     OW 2890   3.213   0.590   3.295
  938SOL    HW1 2891   3.241   0.547   3.380
  938SOL    HW2 2892   3.238   0.686   3.296
  939SOL     OW 2893   2.665   1.402   2.786
  939SOL    HW1 2894   2.755   1.416   2.744
  939SOL    HW2 2895   2.594   1.404   2.715
  940SOL     OW 2896   2.784   0.503   2.761
  940SOL    HW1 2897   2.759   0.494   2.665
  940SOL    HW2 2898   2.832   0.421   2.792
  941SOL     OW 2899   2.401   0.064   2.374
  941SOL    HW1 2900   2.320   0.065   2.432
  941SOL    HW2 2901   2.404   0.147   2.319
  942SOL     OW 2902   3.296   1.188   1.903
  942SOL    HW1 2903   3.328   1.112   1.960
  942SOL    HW2 2904   3.204   1.215   1.933
  943SOL     OW 2905   2.159   0.035   2.033
  943SOL    HW1 2906   2.208   0.119   2.012
  943SOL    HW2 2907   2.221  -0.030   2.078
  944SOL     OW 2908   2.797   0.236   2.342
  944SOL    HW1 2909   2.749   0.277   2.264
  944SOL    HW2 2910   2.896   0.234   2.323
  945SOL     OW 2911   3.089   1.570   2.655
  945SOL    HW1 2912   3.110   1.644   2.590
  945SOL    HW2 2913   3.157   1.570   2.728
  946SOL     OW 2914   2.321   1.152   2.603
  946SOL    HW1 2915   2.250   1.125   2.668
  946SOL    HW2 2916   2.295   1.124   2.510
  947SOL     OW 2917   3.133   1.797   2.453
  947SOL    HW1 2918   3.177   1.861   2.389
  947SOL    HW2 2919   3.083   1.849   2.523
  948SOL     OW 2920   2.894   0.549   1.878
  948SOL    HW1 2921   2.853   0.631   1.839
  948SOL    HW2 2922   2.958   0.575   1.951
  949SOL     OW 2923   1.940   0.556   3.248
  949SOL    HW1 2924   2.032   0.555   3.207
  949SOL    HW2 2925   1.934   0.630   3.315
  950SOL     OW 2926   2.423   0.222   3.009
  950SOL    HW1 2927   2.461   0.138   3.046
  950SOL    HW2 2928   2.335   0.241   3.053
  951SOL     OW 2929   2.728   0.454   2.504
  951SOL    HW1 2930   2.696   0.526   2.442
  951SOL    HW2 2931   2.752   0.373   2.451
  952SOL     OW 2932   2.879   0.039   2.615
  952SOL    HW1 2933   2.807   0.044   2.546
  952SOL    HW2 2934   2.855  -0.030   2.684
  953SOL     OW 2935   3.291   1.173   2.729
  953SOL    HW1 2936   3.236   1.089   2.722
  953SOL    HW2 2937   3.317   1.202   2.637
  954SOL     OW 2938   2.350   1.385   2.036
  954SOL    HW1 2939   2.263   1.370   2.083
  954SOL    HW2 2940   2.333   1.411   1.941
  955SOL     OW 2941   3.252   0.575   1.940
  955SOL    HW1 2942   3.198   0.554   2.021
  955SOL    HW2 2943   3.343   0.534   1.949
  956SOL     OW 2944   2.389   0.256   2.190
  956SOL    HW1 2945   2.416   0.197   2.115
  956SOL    HW2 2946   2.389   0.351   2.159
  957SOL     OW 2947   2.926   1.347   3.202
  957SOL    HW1 2948   2.846   1.324   3.257
  957SOL    HW2 2949   3.009   1.321   3.251
  958SOL     OW 2950   2.973   1.195   2.962
  958SOL    HW1 2951   2.933   1.239   3.043
  958SOL    HW2 2952   2.932   1.232   2.879
  959SOL     OW 2953   2.777   0.089   3.264
  959SOL    HW1 2954   2.802   0.069   3.169
  959SOL    HW2 2955   2.849   0.145   3.306
  960SOL     OW 2956   2.567   1.050   2.230
  960SOL    HW1 2957   2.553   1.057   2.329
  960SOL    HW2 2958   2.651   0.999   2.212
  961SOL     OW 2959   2.272   0.813   3.113
  961SOL    HW1 2960   2.358   0.825   3.163
  961SOL    HW2 2961   2.230   0.726   3.140
  962SOL     OW 2962   3.136   0.386   3.124
  962SOL    HW1 2963   3.157   0.460   3.188
  962SOL    HW2 2964   3.047   0.403   3.081
  963SOL     OW 2965   1.926   1.564   3.193
  963SOL    HW1 2966   1.880   1.646   3.159
  963SOL    HW2 2967   2.024   1.583   3.202
  964SOL     OW 2968   2.229   1.100   2.363
  964SOL    HW1 2969   2.222   1.183   2.307
  964SOL    HW2 2970   2.233   1.020   2.303
  965SOL     OW 2971   2.428   0.537   2.727
  965SOL    HW1 2972   2.440   0.603   2.653
  965SOL    HW2 2973   2.474   0.571   2.810
  966SOL     OW 2974   3.114   1.348   2.250
  966SOL    HW1 2975   3.164   1.425   2.290
  966SOL    HW2 2976   3.019   1.350   2.282
  967SOL     OW 2977   3.134   1.445   3.004
  967SOL    HW1 2978   3.181   1.458   3.091
  967SOL    HW2 2979   3.068   1.371   3.013
  968SOL     OW 2980   2.216   1.510   3.191
  968SOL    HW1 2981   2.195   1.466   3.104
  968SOL    HW2 2982   2.313   1.536   3.194
  969SOL     OW 2983   2.264   0.751   3.460
  969SOL    HW1 2984   2.332   0.806   3.413
  969SOL    HW2 2985   2.304   0.663   3.487
  970SOL     OW 2986   3.449   0.779   3.532
  970SOL    HW1 2987   3.357   0.817   3.527
  970SOL    HW2 2988   3.509   0.826   3.467
  971SOL     OW 2989   2.435   0.870   2.891
  971SOL    HW1 2990   2.479   0.959   2.882
  971SOL    HW2 2991   2.372   0.870   2.968
  972SOL     OW 2992   3.222   0.862   2.907
  972SOL    HW1 2993   3.147   0.862   2.841
  972SOL    HW2 2994   3.259   0.770   2.916
  973SOL     OW 2995   3.071   0.525   2.137
  973SOL    HW1 2996   3.084   0.441   2.191
  973SOL    HW2 2997   3.042   0.599   2.197
  974SOL     OW 2998   2.169   0.213   3.093
  974SOL    HW1 2999   2.146   0.250   3.183
  974SOL    HW2 3000   2.139   0.118   3.087
  975SOL     OW 3001   1.899   1.310   3.144
  975SOL    HW1 3002   1.952   1.261   3.212
  975SOL    HW2 3003   1.921   1.408   3.149
  976SOL     OW 3004   2.594   0.634   2.926
  976SOL    HW1 3005   2.653   0.608   2.850
  976SOL    HW2 3006   2.566   0.730   2.915
  977SOL     OW 3007   2.169   0.063   2.480
  977SOL    HW1 3008   2.158   0.157   2.513
  977SOL    HW2 3009   2.164   0.000   2.557
  978SOL     OW 3010   3.484   0.367   2.236
  978SOL    HW1 3011   3.486   0.291   2.300
  978SOL    HW2 3012   3.436   0.444   2.276
  979SOL     OW 3013   2.885   0.766   2.828
  979SOL    HW1 3014   2.900   0.787   2.924
  979SOL    HW2 3015   2.855   0.671   2.819
  980SOL     OW 3016   2.842   1.573   3.562
  980SOL    HW1 3017   2.822   1.617   3.474
  980SOL    HW2 3018   2.881   1.482   3.546
  981SOL     OW 3019   3.165   0.838   1.904
  981SOL    HW1 3020   3.199   0.745   1.919
  981SOL    HW2 3021   3.183   0.865   1.809
  982SOL     OW 3022   2.930   1.333   2.711
  982SOL    HW1 3023   2.937   1.249   2.656
  982SOL    HW2 3024   2.992   1.402   2.675
  983SOL     OW 3025   2.181   0.810   2.811
  983SOL    HW1 3026   2.274   0.846   2.816
  983SOL    HW2 3027   2.175   0.725   2.863
  984SOL     OW 3028   2.201   0.509   2.868
  984SOL    HW1 3029   2.149   0.426   2.851
  984SOL    HW2 3030   2.278   0.514   2.804
  985SOL     OW 3031   3.000   0.380   3.540
  985SOL    HW1 3032   2.955   0.443   3.604
  985SOL    HW2 3033   3.093   0.411   3.523
  986SOL     OW 3034   3.022   0.207   3.339
  986SOL    HW1 3035   3.022   0.271   3.416
  986SOL    HW2 3036   3.050   0.255   3.256
  987SOL     OW 3037   1.870   1.326   2.062
  987SOL    HW1 3038   1.777   1.347   2.031
  987SOL    HW2 3039   1.880   1.227   2.075
  988SOL     OW 3040   1.950   1.801   2.789
  988SOL    HW1 3041   1.908   1.715   2.762
  988SOL    HW2 3042   2.044   1.804   2.755
  989SOL     OW 3043   2.366   1.568   2.772
  989SOL    HW1 3044   2.432   1.642   2.781
  989SOL    HW2 3045   2.410   1.489   2.730
  990SOL     OW 3046   2.864   0.796   3.100
  990SOL    HW1 3047   2.905   0.764   3.186
  990SOL    HW2 3048   2.768   0.769   3.097
  991SOL     OW 3049   1.902   0.544   2.976
  991SOL    HW1 3050   1.987   0.511   2.935
  991SOL    HW2 3051   1.915   0.559   3.074
  992SOL     OW 3052   2.677   0.572   2.187
  992SOL    HW1 3053   2.684   0.483   2.141
  992SOL    HW2 3054   2.583   0.606   2.179
  993SOL     OW 3055   2.114   1.564   3.606
  993SOL    HW1 3056   2.084   1.621   3.682
  993SOL    HW2 3057   2.107   1.467   3.632
  994SOL     OW 3058   2.533   0.464   3.131
  994SOL    HW1 3059   2.499   0.375   3.101
  994SOL    HW2 3060   2.559   0.518   3.051
  995SOL     OW 3061   2.792   1.678   3.327
  995SOL    HW1 3062   2.768   1.660   3.232
  995SOL    HW2 3063   2.822   1.772   3.337
  996SOL     OW 3064   2.335   0.500   2.053
  996SOL    HW1 3065   2.396   0.580   2.057
  996SOL    HW2 3066   2.240   0.531   2.060
  997SOL     OW 3067   2.021   1.137   3.328
  997SOL    HW1 3068   2.043   1.076   3.404
  997SOL    HW2 3069   2.031   1.088   3.242
  998SOL     OW 3070   3.209   1.059   3.096
  998SOL    HW1 3071   3.233   0.996   3.022
  998SOL    HW2 3072   3.119   1.099   3.078
  999SOL     OW 3073   3.164   0.855   2.171
  999SOL    HW1 3074   3.078   0.824   2.213
  999SOL    HW2 3075   3.160   0.841   2.072
 1000SOL     OW 3076   3.114   1.731   2.990
 1000SOL    HW1 3077   3.198   1.736   2.936
 1000SOL    HW2 3078   3.091   1.635   3.008
 1001SOL     OW 3079   1.945   1.258   2.884
 1001SOL    HW1 3080   1.940   1.257   2.984
 1001SOL    HW2 3081   1.862   1.217   2.846
 1002SOL     OW 3082   3.588   0.135   2.385
 1002SOL    HW1 3083   3.661   0.118   2.318
 1002SOL    HW2 3084   3.557   0.048   2.423
 1003SOL     OW 3085   3.250   1.573   2.339
 1003SOL    HW1 3086   3.317   1.585   2.265
 1003SOL    HW2 3087   3.210   1.662   2.362
 1004SOL     OW 3088   3.142   0.927   2.534
 1004SOL    HW1 3089   3.202   0.846   2.536
 1004SOL    HW2 3090   3.182   0.996   2.474
 1005SOL     OW 3091   2.534   1.616   2.016
 1005SOL    HW1 3092   2.543   1.626   1.917
 1005SOL    HW2 3093   2.494   1.527   2.037
 1006SOL     OW 3094   2.125   0.326   2.582
 1006SOL    HW1 3095   2.046   0.377   2.548
 1006SOL    HW2 3096   2.116   0.311   2.680
 1007SOL     OW 3097   3.056   1.612   1.893
 1007SOL    HW1 3098   3.062   1.519   1.930
 1007SOL    HW2 3099   2.997   1.612   1.813
 1008SOL     OW 3100   2.684   1.002   3.234
 1008SOL    HW1 3101   2.724   1.001   3.142
 1008SOL    HW2 3102   2.694   1.094   3.274
 1009SOL     OW 3103   2.778   0.910   2.153
 1009SOL    HW1 3104   2.841   0.948   2.085
 1009SOL    HW2 3105   2.818   0.827   2.192
 1010SOL     OW 3106   2.234   1.288   3.352
 1010SOL    HW1 3107   2.221   1.381   3.318
 1010SOL    HW2 3108   2.150   1.236   3.339
 1011SOL     OW 3109   2.901   1.098   2.558
 1011SOL    HW1 3110   2.831   1.051   2.612
 1011SOL    HW2 3111   2.960   1.030   2.515
 1012SOL     OW 3112   2.876   0.236   2.833
 1012SOL    HW1 3113   2.868   0.200   2.740
 1012SOL    HW2 3114   2.874   0.160   2.898
 1013SOL     OW 3115   2.452   1.487   2.353
 1013SOL    HW1 3116   2.494   1.429   2.283
 1013SOL    HW2 3117   2.408   1.566   2.309
 1014SOL     OW 3118   2.117   1.348   2.152
 1014SOL    HW1 3119   2.021   1.349   2.125
 1014SOL    HW2 3120   2.129   1.401   2.236
 1015SOL     OW 3121   1.967   1.013   3.588
 1015SOL    HW1 3122   1.890   0.980   3.642
 1015SOL    HW2 3123   2.052   0.983   3.630
 1016SOL     OW 3124   2.534   0.203   3.351
 1016SOL    HW1 3125   2.624   0.187   3.311
 1016SOL    HW2 3126   2.542   0.208   3.450
 1017SOL     OW 3127   1.937   0.345   1.895
 1017SOL    HW1 3128   1.845   0.317   1.866
 1017SOL    HW2 3129   1.968   0.422   1.839
 1018SOL     OW 3130   3.302   0.856   3.260
 1018SOL    HW1 3131   3.245   0.908   3.197
 1018SOL    HW2 3132   3.398   0.868   3.236
 1019SOL     OW 3133   1.934   0.166   2.180
 1019SOL    HW1 3134   1.917   0.249   2.126
 1019SOL    HW2 3135   2.024   0.129   2.158
 1020SOL     OW 3136   3.045   1.335   1.981
 1020SOL    HW1 3137   2.946   1.324   1.983
 1020SOL    HW2 3138   3.079   1.350   2.074
 1021SOL     OW 3139   2.475   0.842   3.293
 1021SOL    HW1 3140   2.531   0.923   3.276
 1021SOL    HW2 3141   2.534   0.762   3.296
 1022SOL     OW 3142   3.355   1.767   2.821
 1022SOL    HW1 3143   3.388   1.831   2.752
 1022SOL    HW2 3144   3.421   1.761   2.896
 1023SOL     OW 3145   2.578   0.565   3.570
 1023SOL    HW1 3146   2.597   0.630   3.644
 1023SOL    HW2 3147   2.638   0.485   3.579
 1024SOL     OW 3148   2.252   1.741   3.422
 1024SOL    HW1 3149   2.161   1.782   3.420
 1024SOL    HW2 3150   2.245   1.647   3.454
 1025SOL     OW 3151   3.087   0.325   2.311
 1025SOL    HW1 3152   3.152   0.251   2.300
 1025SOL    HW2 3153   3.107   0.375   2.395
 1026SOL     OW 3154   2.456   0.745   2.514
 1026SOL    HW1 3155   2.506   0.830   2.495
 1026SOL    HW2 3156   2.368   0.747   2.466
 1027SOL     OW 3157   2.721   1.374   1.878
 1027SOL    HW1 3158   2.675   1.389   1.966
 1027SOL    HW2 3159   2.765   1.459   1.848
 1028SOL     OW 3160   2.523   1.790   2.815
 1028SOL    HW1 3161   2.477   1.878   2.802
 1028SOL    HW2 3162   2.622   1.802   2.808
 1029SOL     OW 3163   2.721   0.956   2.723
 1029SOL    HW1 3164   2.775   0.887   2.771
 1029SOL    HW2 3165   2.689   1.025   2.789
 1030SOL     OW 3166   2.945   0.984   1.949
 1030SOL    HW1 3167   2.922   1.037   1.867
 1030SOL    HW2 3168   3.026   0.928   1.930
 1031SOL     OW 3169   1.941   1.240   2.515
 1031SOL    HW1 3170   1.940   1.193   2.603
 1031SOL    HW2 3171   2.023   1.212   2.464
 1032SOL     OW 3172   2.290   0.424   2.382
 1032SOL    HW1 3173   2.320   0.352   2.320
 1032SOL    HW2 3174   2.251   0.384   2.465
 1033SOL     OW 3175   2.179   0.547   3.142
 1033SOL    HW1 3176   2.217   0.488   3.214
 1033SOL    HW2 3177   2.219   0.521   3.054
 1034SOL     OW 3178   2.674   1.586   2.549
 1034SOL    HW1 3179   2.706   1.596   2.455
 1034SOL    HW2 3180   2.595   1.524   2.551
 1035SOL     OW 3181   3.286   0.214   2.974
 1035SOL    HW1 3182   3.338   0.149   3.029
 1035SOL    HW2 3183   3.237   0.277   3.035
 1036SOL     OW 3184   2.863   0.034   3.016
 1036SOL    HW1 3185   2.800  -0.038   2.985
 1036SOL    HW2 3186   2.956  -0.002   3.016
 1037SOL     OW 3187   2.632   1.330   2.163
 1037SOL    HW1 3188   2.586   1.243   2.180
 1037SOL    HW2 3189   2.723   1.327   2.204
 1038SOL     OW 3190   2.480   1.567   3.146
 1038SOL    HW1 3191   2.475   1.649   3.203
 1038SOL    HW2 3192   2.569   1.564   3.101
 1039SOL     OW 3193   3.214   0.052   2.030
 1039SOL    HW1 3194   3.249   0.011   1.946
 1039SOL    HW2 3195   3.124   0.014   2.050
 1040SOL     OW 3196   3.162   0.453   2.553
 1040SOL    HW1 3197   3.103   0.533   2.557
 1040SOL    HW2 3198   3.177   0.418   2.646
 1041SOL     OW 3199   3.455   0.221   2.744
 1041SOL    HW1 3200   3.371   0.220   2.798
 1041SOL    HW2 3201   3.457   0.304   2.688
 1042SOL     OW 3202   1.901   1.077   2.162
 1042SOL    HW1 3203   2.000   1.066   2.153
 1042SOL    HW2 3204   1.861   0.991   2.194
 1043SOL     OW 3205   2.737   1.646   2.199
 1043SOL    HW1 3206   2.660   1.611   2.145
 1043SOL    HW2 3207   2.705   1.717   2.261
 1044SOL     OW 3208   2.092   2.490   0.113
 1044SOL    HW1 3209   1.999   2.488   0.150
 1044SOL    HW2 3210   2.093   2.451   0.021
 1045SOL     OW 3211   2.087   2.137   0.996
 1045SOL    HW1 3212   2.122   2.120   1.088
 1045SOL    HW2 3213   1.999   2.092   0.984
 1046SOL     OW 3214   1.881   2.230   0.647
 1046SOL    HW1 3215   1.799   2.273   0.686
 1046SOL    HW2 3216   1.853   2.157   0.584
 1047SOL     OW 3217   2.431   3.137   1.165
 1047SOL    HW1 3218   2.338   3.130   1.128
 1047SOL    HW2 3219   2.442   3.226   1.209
 1048SOL     OW 3220   3.417   3.373   0.703
 1048SOL    HW1 3221   3.360   3.357   0.784
 1048SOL    HW2 3222   3.358   3.383   0.623
 1049SOL     OW 3223   2.997   2.565   0.717
 1049SOL    HW1 3224   3.054   2.643   0.692
 1049SOL    HW2 3225   2.937   2.591   0.793
 1050SOL     OW 3226   2.630   3.006   1.023
 1050SOL    HW1 3227   2.552   3.023   1.083
 1050SOL    HW2 3228   2.664   3.093   0.987
 1051SOL     OW 3229   2.712   2.660   1.823
 1051SOL    HW1 3230   2.708   2.736   1.888
 1051SOL    HW2 3231   2.734   2.696   1.732
 1052SOL     OW 3232   2.547   2.874   0.665
 1052SOL    HW1 3233   2.616   2.858   0.735
 1052SOL    HW2 3234   2.474   2.931   0.703
 1053SOL     OW 3235   2.548   3.023   1.803
 1053SOL    HW1 3236   2.608   3.102   1.817
 1053SOL    HW2 3237   2.462   3.054   1.762
 1054SOL     OW 3238   2.197   3.297   1.061
 1054SOL    HW1 3239   2.119   3.266   1.008
 1054SOL    HW2 3240   2.255   3.355   1.004
 1055SOL     OW 3241   3.322   3.367   1.339
 1055SOL    HW1 3242   3.346   3.461   1.365
 1055SOL    HW2 3243   3.306   3.313   1.421
 1056SOL     OW 3244   2.300   2.254   1.499
 1056SOL    HW1 3245   2.382   2.198   1.508
 1056SOL    HW2 3246   2.219   2.196   1.503
 1057SOL     OW 3247   2.989   3.203   1.690
 1057SOL    HW1 3248   3.036   3.203   1.778
 1057SOL    HW2 3249   2.941   3.116   1.679
 1058SOL     OW 3250   2.092   3.296   0.538
 1058SOL    HW1 3251   2.066   3.392   0.538
 1058SOL    HW2 3252   2.021   3.242   0.583
 1059SOL     OW 3253   2.102   2.953   0.886
 1059SOL    HW1 3254   2.116   2.869   0.938
 1059SOL    HW2 3255   2.047   3.017   0.941
 1060SOL     OW 3256   2.468   2.826   0.123
 1060SOL    HW1 3257   2.475   2.910   0.069
 1060SOL    HW2 3258   2.514   2.839   0.211
 1061SOL     OW 3259   1.984   2.505   0.563
 1061SOL    HW1 3260   1.939   2.417   0.580
 1061SOL    HW2 3261   1.983   2.559   0.647
 1062SOL     OW 3262   1.889   3.458   0.117
 1062SOL    HW1 3263   1.870   3.362   0.138
 1062SOL    HW2 3264   1.856   3.516   0.192
 1063SOL     OW 3265   3.551   2.784   0.612
 1063SOL    HW1 3266   3.646   2.755   0.620
 1063SOL    HW2 3267   3.543   2.849   0.537
 1064SOL     OW 3268   1.975   2.599   1.597
 1064SOL    HW1 3269   2.063   2.586   1.642
 1064SOL    HW2 3270   1.962   2.696   1.575
 1065SOL     OW 3271   2.475   3.227   0.726
 1065SOL    HW1 3272   2.426   3.140   0.735
 1065SOL    HW2 3273   2.452   3.270   0.639
 1066SOL     OW 3274   3.155   3.090   1.423
 1066SOL    HW1 3275   3.192   3.017   1.365
 1066SOL    HW2 3276   3.207   3.095   1.508
 1067SOL     OW 3277   2.671   1.866   0.502
 1067SOL    HW1 3278   2.711   1.957   0.493
 1067SOL    HW2 3279   2.571   1.874   0.508
 1068SOL     OW 3280   2.059   2.838   1.264
 1068SOL    HW1 3281   2.148   2.793   1.250
 1068SOL    HW2 3282   1.986   2.773   1.245
 1069SOL     OW 3283   2.179   2.113   1.801
 1069SOL    HW1 3284   2.250   2.184   1.807
 1069SOL    HW2 3285   2.091   2.152   1.829
 1070SOL     OW 3286   3.328   3.279   0.953
 1070SOL    HW1 3287   3.269   3.285   1.033
 1070SOL    HW2 3288   3.313   3.191   0.907
 1071SOL     OW 3289   2.460   2.591   0.270
 1071SOL    HW1 3290   2.484   2.660   0.202
 1071SOL    HW2 3291   2.382   2.624   0.324
 1072SOL     OW 3292   3.143   2.207   0.944
 1072SOL    HW1 3293   3.057   2.157   0.931
 1072SOL    HW2 3294   3.205   2.153   1.000
 1073SOL     OW 3295   2.669   2.467   1.465
 1073SOL    HW1 3296   2.622   2.464   1.554
 1073SOL    HW2 3297   2.618   2.412   1.399
 1074SOL     OW 3298   3.256   2.331   1.674
 1074SOL    HW1 3299   3.236   2.374   1.762
 1074SOL    HW2 3300   3.334   2.269   1.683
 1075SOL     OW 3301   2.835   2.752   1.572
 1075SOL    HW1 3302   2.881   2.668   1.543
 1075SOL    HW2 3303   2.779   2.786   1.497
 1076SOL     OW 3304   2.853   2.272   1.242
 1076SOL    HW1 3305   2.776   2.306   1.296
 1076SOL    HW2 3306   2.819   2.221   1.163
 1077SOL     OW 3307   2.903   2.563   0.429
 1077SOL    HW1 3308   2.929   2.559   0.525
 1077SOL    HW2 3309   2.818   2.512   0.415
 1078SOL     OW 3310   1.938   2.673   0.789
 1078SOL    HW1 3311   2.037   2.661   0.798
 1078SOL    HW2 3312   1.914   2.768   0.810
 1079SOL     OW 3313   2.727   2.210   0.195
 1079SOL    HW1 3314   2.786   2.273   0.146
 1079SOL    HW2 3315   2.746   2.116   0.166
 1080SOL     OW 3316   3.224   3.006   0.545
 1080SOL    HW1 3317   3.307   2.977   0.497
 1080SOL    HW2 3318   3.175   3.073   0.489
 1081SOL     OW 3319   2.412   2.058   0.885
 1081SOL    HW1 3320   2.407   2.053   0.985
 1081SOL    HW2 3321   2.414   2.154   0.856
 1082SOL     OW 3322   2.870   3.318   0.477
 1082SOL    HW1 3323   2.824   3.390   0.425
 1082SOL    HW2 3324   2.866   3.338   0.575
 1083SOL     OW 3325   3.089   3.412   1.506
 1083SOL    HW1 3326   3.095   3.335   1.570
 1083SOL    HW2 3327   3.037   3.386   1.426
 1084SOL     OW 3328   2.183   2.805   0.242
 1084SOL    HW1 3329   2.265   2.844   0.200
 1084SOL    HW2 3330   2.156   2.723   0.193
 1085SOL     OW 3331   2.323   3.128   1.727
 1085SOL    HW1 3332   2.273   3.129   1.641
 1085SOL    HW2 3333   2.260   3.110   1.803
 1086SOL     OW 3334   2.973   3.638   0.237
 1086SOL    HW1 3335   2.913   3.576   0.287
 1086SOL    HW2 3336   3.004   3.594   0.152
 1087SOL     OW 3337   2.064   2.147   1.498
 1087SOL    HW1 3338   1.984   2.207   1.485
 1087SOL    HW2 3339   2.054   2.098   1.584
 1088SOL     OW 3340   3.262   1.969   0.426
 1088SOL    HW1 3341   3.238   1.932   0.336
 1088SOL    HW2 3342   3.361   1.985   0.430
 1089SOL     OW 3343   2.244   2.562   0.480
 1089SOL    HW1 3344   2.289   2.472   0.477
 1089SOL    HW2 3345   2.150   2.551   0.513
 1090SOL     OW 3346   2.476   1.984   0.117
 1090SOL    HW1 3347   2.574   1.962   0.124
 1090SOL    HW2 3348   2.445   1.967   0.024
 1091SOL     OW 3349   2.643   2.126   1.749
 1091SOL    HW1 3350   2.710   2.065   1.792
 1091SOL    HW2 3351   2.570   2.145   1.814
 1092SOL     OW 3352   3.213   2.452   1.433
 1092SOL    HW1 3353   3.241   2.409   1.518
 1092SOL    HW2 3354   3.238   2.548   1.434
 1093SOL     OW 3355   2.665   3.264   0.924
 1093SOL    HW1 3356   2.755   3.278   0.882
 1093SOL    HW2 3357   2.594   3.266   0.853
 1094SOL     OW 3358   2.784   2.365   0.899
 1094SOL    HW1 3359   2.759   2.356   0.803
 1094SOL    HW2 3360   2.832   2.283   0.930
 1095SOL     OW 3361   2.401   1.926   0.512
 1095SOL    HW1 3362   2.320   1.927   0.570
 1095SOL    HW2 3363   2.404   2.009   0.457
 1096SOL     OW 3364   3.296   3.050   0.041
 1096SOL    HW1 3365   3.328   2.974   0.098
 1096SOL    HW2 3366   3.204   3.077   0.071
 1097SOL     OW 3367   2.159   1.897   0.171
 1097SOL    HW1 3368   2.208   1.981   0.150
 1097SOL    HW2 3369   2.221   1.832   0.216
 1098SOL     OW 3370   2.797   2.098   0.480
 1098SOL    HW1 3371   2.749   2.139   0.402
 1098SOL    HW2 3372   2.896   2.096   0.461
 1099SOL     OW 3373   2.938   2.545   1.464
 1099SOL    HW1 3374   2.858   2.484   1.467
 1099SOL    HW2 3375   3.019   2.492   1.440
 1100SOL     OW 3376   3.089   3.432   0.793
 1100SOL    HW1 3377   3.110   3.506   0.728
 1100SOL    HW2 3378   3.157   3.432   0.866
 1101SOL     OW 3379   2.321   3.014   0.741
 1101SOL    HW1 3380   2.250   2.987   0.806
 1101SOL    HW2 3381   2.295   2.986   0.648
 1102SOL     OW 3382   2.894   2.411   0.016
 1102SOL    HW1 3383   2.853   2.493  -0.023
 1102SOL    HW2 3384   2.958   2.437   0.089
 1103SOL     OW 3385   1.940   2.418   1.386
 1103SOL    HW1 3386   2.032   2.417   1.345
 1103SOL    HW2 3387   1.934   2.492   1.453
 1104SOL     OW 3388   2.423   2.084   1.147
 1104SOL    HW1 3389   2.461   2.000   1.184
 1104SOL    HW2 3390   2.335   2.103   1.191
 1105SOL     OW 3391   2.728   2.316   0.642
 1105SOL    HW1 3392   2.696   2.388   0.580
 1105SOL    HW2 3393   2.752   2.235   0.589
 1106SOL     OW 3394   2.879   1.901   0.753
 1106SOL    HW1 3395   2.807   1.906   0.684
 1106SOL    HW2 3396   2.855   1.832   0.822
 1107SOL     OW 3397   3.291   3.035   0.867
 1107SOL    HW1 3398   3.236   2.951   0.860
 1107SOL    HW2 3399   3.317   3.064   0.775
 1108SOL     OW 3400   2.350   3.247   0.174
 1108SOL    HW1 3401   2.263   3.232   0.221
 1108SOL    HW2 3402   2.333   3.273   0.079
 1109SOL     OW 3403   3.252   2.437   0.078
 1109SOL    HW1 3404   3.198   2.416   0.159
 1109SOL    HW2 3405   3.343   2.396   0.087
 1110SOL     OW 3406   2.389   2.118   0.328
 1110SOL    HW1 3407   2.416   2.059   0.253
 1110SOL    HW2 3408   2.389   2.213   0.297
 1111SOL     OW 3409   2.926   3.209   1.340
 1111SOL    HW1 3410   2.846   3.186   1.395
 1111SOL    HW2 3411   3.009   3.183   1.389
 1112SOL     OW 3412   2.973   3.057   1.100
 1112SOL    HW1 3413   2.933   3.101   1.181
 1112SOL    HW2 3414   2.932   3.094   1.017
 1113SOL     OW 3415   2.777   1.951   1.402
 1113SOL    HW1 3416   2.802   1.931   1.307
 1113SOL    HW2 3417   2.849   2.007   1.444
 1114SOL     OW 3418   2.842   2.978   1.719
 1114SOL    HW1 3419   2.743   2.984   1.729
 1114SOL    HW2 3420   2.865   2.898   1.663
 1115SOL     OW 3421   2.567   2.912   0.368
 1115SOL    HW1 3422   2.553   2.919   0.467
 1115SOL    HW2 3423   2.651   2.861   0.350
 1116SOL     OW 3424   2.272   2.675   1.251
 1116SOL    HW1 3425   2.358   2.687   1.301
 1116SOL    HW2 3426   2.230   2.588   1.278
 1117SOL     OW 3427   3.136   2.248   1.262
 1117SOL    HW1 3428   3.157   2.322   1.326
 1117SOL    HW2 3429   3.047   2.265   1.219
 1118SOL     OW 3430   2.229   2.962   0.501
 1118SOL    HW1 3431   2.222   3.045   0.445
 1118SOL    HW2 3432   2.233   2.882   0.441
 1119SOL     OW 3433   2.428   2.399   0.865
 1119SOL    HW1 3434   2.440   2.465   0.791
 1119SOL    HW2 3435   2.474   2.433   0.948
 1120SOL     OW 3436   3.114   3.210   0.388
 1120SOL    HW1 3437   3.164   3.287   0.428
 1120SOL    HW2 3438   3.019   3.212   0.420
 1121SOL     OW 3439   3.134   3.307   1.142
 1121SOL    HW1 3440   3.181   3.320   1.229
 1121SOL    HW2 3441   3.068   3.233   1.151
 1122SOL     OW 3442   2.216   3.372   1.329
 1122SOL    HW1 3443   2.195   3.328   1.242
 1122SOL    HW2 3444   2.313   3.398   1.332
 1123SOL     OW 3445   2.264   2.613   1.598
 1123SOL    HW1 3446   2.332   2.668   1.551
 1123SOL    HW2 3447   2.304   2.525   1.625
 1124SOL     OW 3448   2.875   1.967   1.770
 1124SOL    HW1 3449   2.881   2.052   1.718
 1124SOL    HW2 3450   2.907   1.891   1.713
 1125SOL     OW 3451   2.366   1.912   1.740
 1125SOL    HW1 3452   2.324   1.855   1.670
 1125SOL    HW2 3453   2.300   1.981   1.772
 1126SOL     OW 3454   2.435   2.732   1.029
 1126SOL    HW1 3455   2.479   2.821   1.020
 1126SOL    HW2 3456   2.372   2.732   1.106
 1127SOL     OW 3457   3.222   2.724   1.045
 1127SOL    HW1 3458   3.147   2.724   0.979
 1127SOL    HW2 3459   3.259   2.632   1.054
 1128SOL     OW 3460   3.071   2.387   0.275
 1128SOL    HW1 3461   3.084   2.303   0.329
 1128SOL    HW2 3462   3.042   2.461   0.335
 1129SOL     OW 3463   2.169   2.075   1.231
 1129SOL    HW1 3464   2.146   2.112   1.321
 1129SOL    HW2 3465   2.139   1.980   1.225
 1130SOL     OW 3466   1.899   3.172   1.282
 1130SOL    HW1 3467   1.952   3.123   1.350
 1130SOL    HW2 3468   1.921   3.270   1.287
 1131SOL     OW 3469   2.594   2.496   1.064
 1131SOL    HW1 3470   2.653   2.470   0.988
 1131SOL    HW2 3471   2.566   2.592   1.053
 1132SOL     OW 3472   2.169   1.925   0.618
 1132SOL    HW1 3473   2.158   2.019   0.651
 1132SOL    HW2 3474   2.164   1.862   0.695
 1133SOL     OW 3475   3.484   2.229   0.374
 1133SOL    HW1 3476   3.486   2.153   0.438
 1133SOL    HW2 3477   3.436   2.306   0.414
 1134SOL     OW 3478   2.885   2.628   0.966
 1134SOL    HW1 3479   2.900   2.649   1.062
 1134SOL    HW2 3480   2.855   2.533   0.957
 1135SOL     OW 3481   2.212   2.760   1.804
 1135SOL    HW1 3482   2.288   2.804   1.852
 1135SOL    HW2 3483   2.247   2.713   1.722
 1136SOL     OW 3484   3.165   2.700   0.042
 1136SOL    HW1 3485   3.199   2.607   0.057
 1136SOL    HW2 3486   3.183   2.727  -0.053
 1137SOL     OW 3487   2.930   3.195   0.849
 1137SOL    HW1 3488   2.937   3.111   0.794
 1137SOL    HW2 3489   2.992   3.264   0.813
 1138SOL     OW 3490   2.181   2.672   0.949
 1138SOL    HW1 3491   2.274   2.708   0.954
 1138SOL    HW2 3492   2.175   2.587   1.001
 1139SOL     OW 3493   2.201   2.371   1.006
 1139SOL    HW1 3494   2.149   2.288   0.989
 1139SOL    HW2 3495   2.278   2.376   0.942
 1140SOL     OW 3496   3.000   2.242   1.678
 1140SOL    HW1 3497   2.955   2.305   1.742
 1140SOL    HW2 3498   3.093   2.273   1.661
 1141SOL     OW 3499   3.022   2.069   1.477
 1141SOL    HW1 3500   3.022   2.133   1.554
 1141SOL    HW2 3501   3.050   2.117   1.394
 1142SOL     OW 3502   1.870   3.188   0.200
 1142SOL    HW1 3503   1.777   3.209   0.169
 1142SOL    HW2 3504   1.880   3.089   0.213
 1143SOL     OW 3505   2.366   3.430   0.910
 1143SOL    HW1 3506   2.432   3.504   0.919
 1143SOL    HW2 3507   2.410   3.351   0.868
 1144SOL     OW 3508   2.864   2.658   1.238
 1144SOL    HW1 3509   2.905   2.626   1.324
 1144SOL    HW2 3510   2.768   2.631   1.235
 1145SOL     OW 3511   1.902   2.406   1.114
 1145SOL    HW1 3512   1.987   2.373   1.073
 1145SOL    HW2 3513   1.915   2.421   1.212
 1146SOL     OW 3514   2.051   2.382   1.722
 1146SOL    HW1 3515   2.110   2.342   1.652
 1146SOL    HW2 3516   1.993   2.453   1.681
 1147SOL     OW 3517   3.231   2.812   1.660
 1147SOL    HW1 3518   3.270   2.901   1.680
 1147SOL    HW2 3519   3.241   2.792   1.563
 1148SOL     OW 3520   2.677   2.434   0.325
 1148SOL    HW1 3521   2.684   2.345   0.279
 1148SOL    HW2 3522   2.583   2.468   0.317
 1149SOL     OW 3523   2.114   3.426   1.744
 1149SOL    HW1 3524   2.084   3.483   1.820
 1149SOL    HW2 3525   2.107   3.329   1.770
 1150SOL     OW 3526   2.533   2.326   1.269
 1150SOL    HW1 3527   2.499   2.237   1.239
 1150SOL    HW2 3528   2.559   2.380   1.189
 1151SOL     OW 3529   2.335   2.362   0.191
 1151SOL    HW1 3530   2.396   2.442   0.195
 1151SOL    HW2 3531   2.240   2.393   0.198
 1152SOL     OW 3532   2.021   2.999   1.466
 1152SOL    HW1 3533   2.043   2.938   1.542
 1152SOL    HW2 3534   2.031   2.950   1.380
 1153SOL     OW 3535   3.209   2.921   1.234
 1153SOL    HW1 3536   3.233   2.858   1.160
 1153SOL    HW2 3537   3.119   2.961   1.216
 1154SOL     OW 3538   3.164   2.717   0.309
 1154SOL    HW1 3539   3.078   2.686   0.351
 1154SOL    HW2 3540   3.160   2.703   0.210
 1155SOL     OW 3541   1.945   3.120   1.022
 1155SOL    HW1 3542   1.940   3.119   1.122
 1155SOL    HW2 3543   1.862   3.079   0.984
 1156SOL     OW 3544   2.550   3.524   1.716
 1156SOL    HW1 3545   2.494   3.605   1.725
 1156SOL    HW2 3546   2.602   3.528   1.630
 1157SOL     OW 3547   2.765   1.948   0.133
 1157SOL    HW1 3548   2.816   1.949   0.047
 1157SOL    HW2 3549   2.821   1.906   0.204
 1158SOL     OW 3550   3.588   1.997   0.523
 1158SOL    HW1 3551   3.661   1.980   0.456
 1158SOL    HW2 3552   3.557   1.910   0.561
 1159SOL     OW 3553   3.142   2.789   0.672
 1159SOL    HW1 3554   3.202   2.708   0.674
 1159SOL    HW2 3555   3.182   2.858   0.612
 1160SOL     OW 3556   2.692   3.135   1.422
 1160SOL    HW1 3557   2.687   3.168   1.517
 1160SOL    HW2 3558   2.606   3.154   1.376
 1161SOL     OW 3559   2.125   2.188   0.720
 1161SOL    HW1 3560   2.046   2.239   0.686
 1161SOL    HW2 3561   2.116   2.173   0.818
 1162SOL     OW 3562   3.056   3.474   0.031
 1162SOL    HW1 3563   3.062   3.381   0.068
 1162SOL    HW2 3564   2.997   3.474  -0.049
 1163SOL     OW 3565   2.684   2.864   1.372
 1163SOL    HW1 3566   2.724   2.863   1.280
 1163SOL    HW2 3567   2.694   2.956   1.412
 1164SOL     OW 3568   2.778   2.772   0.291
 1164SOL    HW1 3569   2.841   2.810   0.223
 1164SOL    HW2 3570   2.818   2.689   0.330
 1165SOL     OW 3571   2.234   3.150   1.490
 1165SOL    HW1 3572   2.221   3.243   1.456
 1165SOL    HW2 3573   2.150   3.098   1.477
 1166SOL     OW 3574   2.901   2.960   0.696
 1166SOL    HW1 3575   2.831   2.913   0.750
 1166SOL    HW2 3576   2.960   2.892   0.653
 1167SOL     OW 3577   2.876   2.098   0.971
 1167SOL    HW1 3578   2.868   2.062   0.878
 1167SOL    HW2 3579   2.874   2.022   1.036
 1168SOL     OW 3580   2.117   3.210   0.290
 1168SOL    HW1 3581   2.021   3.211   0.263
 1168SOL    HW2 3582   2.129   3.263   0.374
 1169SOL     OW 3583   1.967   2.875   1.726
 1169SOL    HW1 3584   1.890   2.842   1.780
 1169SOL    HW2 3585   2.052   2.845   1.768
 1170SOL     OW 3586   2.534   2.065   1.489
 1170SOL    HW1 3587   2.624   2.049   1.449
 1170SOL    HW2 3588   2.542   2.070   1.588
 1171SOL     OW 3589   3.302   2.718   1.398
 1171SOL    HW1 3590   3.245   2.770   1.335
 1171SOL    HW2 3591   3.398   2.730   1.374
 1172SOL     OW 3592   1.934   2.028   0.318
 1172SOL    HW1 3593   1.917   2.111   0.264
 1172SOL    HW2 3594   2.024   1.991   0.296
 1173SOL     OW 3595   3.045   3.197   0.119
 1173SOL    HW1 3596   2.946   3.186   0.121
 1173SOL    HW2 3597   3.079   3.212   0.212
 1174SOL     OW 3598   2.475   2.704   1.431
 1174SOL    HW1 3599   2.531   2.785   1.414
 1174SOL    HW2 3600   2.534   2.624   1.434
 1175SOL     OW 3601   2.578   2.427   1.708
 1175SOL    HW1 3602   2.597   2.492   1.782
 1175SOL    HW2 3603   2.638   2.347   1.717
 1176SOL     OW 3604   3.312   3.082   1.633
 1176SOL    HW1 3605   3.303   3.072   1.732
 1176SOL    HW2 3606   3.408   3.075   1.607
 1177SOL     OW 3607   3.087   2.187   0.449
 1177SOL    HW1 3608   3.152   2.113   0.438
 1177SOL    HW2 3609   3.107   2.237   0.533
 1178SOL     OW 3610   2.456   2.607   0.652
 1178SOL    HW1 3611   2.506   2.692   0.633
 1178SOL    HW2 3612   2.368   2.609   0.604
 1179SOL     OW 3613   2.721   3.236   0.016
 1179SOL    HW1 3614   2.675   3.251   0.104
 1179SOL    HW2 3615   2.765   3.321  -0.014
 1180SOL     OW 3616   3.270   3.713   1.720
 1180SOL    HW1 3617   3.174   3.702   1.693
 1180SOL    HW2 3618   3.326   3.646   1.672
 1181SOL     OW 3619   2.721   2.818   0.861
 1181SOL    HW1 3620   2.775   2.749   0.909
 1181SOL    HW2 3621   2.689   2.887   0.927
 1182SOL     OW 3622   2.945   2.846   0.087
 1182SOL    HW1 3623   2.922   2.899   0.005
 1182SOL    HW2 3624   3.026   2.790   0.068
 1183SOL     OW 3625   2.083   3.176   1.844
 1183SOL    HW1 3626   2.018   3.103   1.823
 1183SOL    HW2 3627   2.087   3.190   1.942
 1184SOL     OW 3628   1.941   3.102   0.653
 1184SOL    HW1 3629   1.940   3.055   0.741
 1184SOL    HW2 3630   2.023   3.074   0.602
 1185SOL     OW 3631   2.534   3.253   1.624
 1185SOL    HW1 3632   2.456   3.203   1.662
 1185SOL    HW2 3633   2.531   3.348   1.655
 1186SOL     OW 3634   2.290   2.286   0.520
 1186SOL    HW1 3635   2.320   2.214   0.458
 1186SOL    HW2 3636   2.251   2.246   0.603
 1187SOL     OW 3637   2.179   2.409   1.280
 1187SOL    HW1 3638   2.217   2.350   1.352
 1187SOL    HW2 3639   2.219   2.383   1.192
 1188SOL     OW 3640   3.286   2.076   1.112
 1188SOL    HW1 3641   3.338   2.011   1.167
 1188SOL    HW2 3642   3.237   2.139   1.173
 1189SOL     OW 3643   2.863   1.896   1.154
 1189SOL    HW1 3644   2.800   1.824   1.123
 1189SOL    HW2 3645   2.956   1.860   1.154
 1190SOL     OW 3646   2.632   3.192   0.301
 1190SOL    HW1 3647   2.586   3.105   0.318
 1190SOL    HW2 3648   2.723   3.189   0.342
 1191SOL     OW 3649   2.480   3.429   1.284
 1191SOL    HW1 3650   2.475   3.511   1.341
 1191SOL    HW2 3651   2.569   3.426   1.239
 1192SOL     OW 3652   3.214   1.914   0.168
 1192SOL    HW1 3653   3.249   1.873   0.084
 1192SOL    HW2 3654   3.124   1.876   0.188
 1193SOL     OW 3655   3.162   2.315   0.691
 1193SOL    HW1 3656   3.103   2.395   0.695
 1193SOL    HW2 3657   3.177   2.280   0.784
 1194SOL     OW 3658   3.455   2.083   0.882
 1194SOL    HW1 3659   3.371   2.082   0.936
 1194SOL    HW2 3660   3.457   2.166   0.826
 1195SOL     OW 3661   1.901   2.939   0.300
 1195SOL    HW1 3662   2.000   2.928   0.291
 1195SOL    HW2 3663   1.861   2.853   0.332
 1196SOL     OW 3664   2.092   2.490   1.975
 1196SOL    HW1 3665   1.999   2.488   2.012
 1196SOL    HW2 3666   2.093   2.451   1.883
 1197SOL     OW 3667   2.087   2.137   2.858
 1197SOL    HW1 3668   2.122   2.120   2.950
 1197SOL    HW2 3669   1.999   2.092   2.846
 1198SOL     OW 3670   1.881   2.230   2.509
 1198SOL    HW1 3671   1.799   2.273   2.548
 1198SOL    HW2 3672   1.853   2.157   2.446
 1199SOL     OW 3673   2.431   3.137   3.027
 1199SOL    HW1 3674   2.338   3.130   2.990
 1199SOL    HW2 3675   2.442   3.226   3.071
 1200SOL     OW 3676   3.417   3.373   2.565
 1200SOL    HW1 3677   3.360   3.357   2.646
 1200SOL    HW2 3678   3.358   3.383   2.485
 1201SOL     OW 3679   2.997   2.565   2.579
 1201SOL    HW1 3680   3.054   2.643   2.554
 1201SOL    HW2 3681   2.937   2.591   2.655
 1202SOL     OW 3682   2.630   3.006   2.885
 1202SOL    HW1 3683   2.552   3.023   2.945
 1202SOL    HW2 3684   2.664   3.093   2.849
 1203SOL     OW 3685   2.547   2.874   2.527
 1203SOL    HW1 3686   2.616   2.858   2.597
 1203SOL    HW2 3687   2.474   2.931   2.565
 1204SOL     OW 3688   2.197   3.297   2.923
 1204SOL    HW1 3689   2.119   3.266   2.870
 1204SOL    HW2 3690   2.255   3.355   2.866
 1205SOL     OW 3691   3.322   3.367   3.201
 1205SOL    HW1 3692   3.346   3.461   3.227
 1205SOL    HW2 3693   3.306   3.313   3.283
 1206SOL     OW 3694   2.300   2.254   3.361
 1206SOL    HW1 3695   2.382   2.198   3.370
 1206SOL    HW2 3696   2.219   2.196   3.365
 1207SOL     OW 3697   2.092   3.296   2.400
 1207SOL    HW1 3698   2.066   3.392   2.400
 1207SOL    HW2 3699   2.021   3.242   2.445
 1208SOL     OW 3700   2.102   2.953   2.748
 1208SOL    HW1 3701   2.116   2.869   2.800
 1208SOL    HW2 3702   2.047   3.017   2.803
 1209SOL     OW 3703   2.468   2.826   1.985
 1209SOL    HW1 3704   2.475   2.910   1.931
 1209SOL    HW2 3705   2.514   2.839   2.073
 1210SOL     OW 3706   1.984   2.505   2.425
 1210SOL    HW1 3707   1.939   2.417   2.442
 1210SOL    HW2 3708   1.983   2.559   2.509
 1211SOL     OW 3709   1.889   3.458   1.979
 1211SOL    HW1 3710   1.870   3.362   2.000
 1211SOL    HW2 3711   1.856   3.516   2.054
 1212SOL     OW 3712   3.551   2.784   2.474
 1212SOL    HW1 3713   3.646   2.755   2.482
 1212SOL    HW2 3714   3.543   2.849   2.399
 1213SOL     OW 3715   2.475   3.227   2.588
 1213SOL    HW1 3716   2.426   3.140   2.597
 1213SOL    HW2 3717   2.452   3.270   2.501
 1214SOL     OW 3718   3.155   3.090   3.285
 1214SOL    HW1 3719   3.192   3.017   3.227
 1214SOL    HW2 3720   3.207   3.095   3.370
 1215SOL     OW 3721   2.671   1.866   2.364
 1215SOL    HW1 3722   2.711   1.957   2.355
 1215SOL    HW2 3723   2.571   1.874   2.370
 1216SOL     OW 3724   2.059   2.838   3.126
 1216SOL    HW1 3725   2.148   2.793   3.112
 1216SOL    HW2 3726   1.986   2.773   3.107
 1217SOL     OW 3727   3.328   3.279   2.815
 1217SOL    HW1 3728   3.269   3.285   2.895
 1217SOL    HW2 3729   3.313   3.191   2.769
 1218SOL     OW 3730   2.460   2.591   2.132
 1218SOL    HW1 3731   2.484   2.660   2.064
 1218SOL    HW2 3732   2.382   2.624   2.186
 1219SOL     OW 3733   3.143   2.207   2.806
 1219SOL    HW1 3734   3.057   2.157   2.793
 1219SOL    HW2 3735   3.205   2.153   2.862
 1220SOL     OW 3736   2.669   2.467   3.327
 1220SOL    HW1 3737   2.622   2.464   3.416
 1220SOL    HW2 3738   2.618   2.412   3.261
 1221SOL     OW 3739   2.835   2.752   3.434
 1221SOL    HW1 3740   2.881   2.668   3.405
 1221SOL    HW2 3741   2.779   2.786   3.359
 1222SOL     OW 3742   2.853   2.272   3.104
 1222SOL    HW1 3743   2.776   2.306   3.158
 1222SOL    HW2 3744   2.819   2.221   3.025
 1223SOL     OW 3745   2.903   2.563   2.291
 1223SOL    HW1 3746   2.929   2.559   2.387
 1223SOL    HW2 3747   2.818   2.512   2.277
 1224SOL     OW 3748   1.938   2.673   2.651
 1224SOL    HW1 3749   2.037   2.661   2.660
 1224SOL    HW2 3750   1.914   2.768   2.672
 1225SOL     OW 3751   2.727   2.210   2.057
 1225SOL    HW1 3752   2.786   2.273   2.008
 1225SOL    HW2 3753   2.746   2.116   2.028
 1226SOL     OW 3754   3.224   3.006   2.407
 1226SOL    HW1 3755   3.307   2.977   2.359
 1226SOL    HW2 3756   3.175   3.073   2.351
 1227SOL     OW 3757   2.412   2.058   2.747
 1227SOL    HW1 3758   2.407   2.053   2.847
 1227SOL    HW2 3759   2.414   2.154   2.718
 1228SOL     OW 3760   2.870   3.318   2.339
 1228SOL    HW1 3761   2.824   3.390   2.287
 1228SOL    HW2 3762   2.866   3.338   2.437
 1229SOL     OW 3763   2.183   2.805   2.104
 1229SOL    HW1 3764   2.265   2.844   2.062
 1229SOL    HW2 3765   2.156   2.723   2.055
 1230SOL     OW 3766   2.973   3.638   2.099
 1230SOL    HW1 3767   2.913   3.576   2.149
 1230SOL    HW2 3768   3.004   3.594   2.014
 1231SOL     OW 3769   2.064   2.147   3.360
 1231SOL    HW1 3770   1.984   2.207   3.347
 1231SOL    HW2 3771   2.054   2.098   3.446
 1232SOL     OW 3772   3.262   1.969   2.288
 1232SOL    HW1 3773   3.238   1.932   2.198
 1232SOL    HW2 3774   3.361   1.985   2.292
 1233SOL     OW 3775   2.244   2.562   2.342
 1233SOL    HW1 3776   2.289   2.472   2.339
 1233SOL    HW2 3777   2.150   2.551   2.375
 1234SOL     OW 3778   2.476   1.984   1.979
 1234SOL    HW1 3779   2.574   1.962   1.986
 1234SOL    HW2 3780   2.445   1.967   1.886
 1235SOL     OW 3781   3.213   2.452   3.295
 1235SOL    HW1 3782   3.241   2.409   3.380
 1235SOL    HW2 3783   3.238   2.548   3.296
 1236SOL     OW 3784   2.665   3.264   2.786
 1236SOL    HW1 3785   2.755   3.278   2.744
 1236SOL    HW2 3786   2.594   3.266   2.715
 1237SOL     OW 3787   2.784   2.365   2.761
 1237SOL    HW1 3788   2.759   2.356   2.665
 1237SOL    HW2 3789   2.832   2.283   2.792
 1238SOL     OW 3790   2.401   1.926   2.374
 1238SOL    HW1 3791   2.320   1.927   2.432
 1238SOL    HW2 3792   2.404   2.009   2.319
 1239SOL     OW 3793   3.296   3.050   1.903
 1239SOL    HW1 3794   3.328   2.974   1.960
 1239SOL    HW2 3795   3.204   3.077   1.933
 1240SOL     OW 3796   2.159   1.897   2.033
 1240SOL    HW1 3797   2.208   1.981   2.012
 1240SOL    HW2 3798   2.221   1.832   2.078
 1241SOL     OW 3799   2.797   2.098   2.342
 1241SOL    HW1 3800   2.749   2.139   2.264
 1241SOL    HW2 3801   2.896   2.096   2.323
 1242SOL     OW 3802   3.089   3.432   2.655
 1242SOL    HW1 3803   3.110   3.506   2.590
 1242SOL    HW2 3804   3.157   3.432   2.728
 1243SOL     OW 3805   2.321   3.014   2.603
 1243SOL    HW1 3806   2.250   2.987   2.668
 1243SOL    HW2 3807   2.295   2.986   2.510
 1244SOL     OW 3808   2.894   2.411   1.878
 1244SOL    HW1 3809   2.853   2.493   1.839
 1244SOL    HW2 3810   2.958   2.437   1.951
 1245SOL     OW 3811   1.940   2.418   3.248
 1245SOL    HW1 3812   2.032   2.417   3.207
 1245SOL    HW2 3813   1.934   2.492   3.315
 1246SOL     OW 3814   2.423   2.084   3.009
 1246SOL    HW1 3815   2.461   2.000   3.046
 1246SOL    HW2 3816   2.335   2.103   3.053
 1247SOL     OW 3817   2.728   2.316   2.504
 1247SOL    HW1 3818   2.696   2.388   2.442
 1247SOL    HW2 3819   2.752   2.235   2.451
 1248SOL     OW 3820   2.879   1.901   2.615
 1248SOL    HW1 3821   2.807   1.906   2.546
 1248SOL    HW2 3822   2.855   1.832   2.684
 1249SOL     OW 3823   3.291   3.035   2.729
 1249SOL    HW1 3824   3.236   2.951   2.722
 1249SOL    HW2 3825   3.317   3.064   2.637
 1250SOL     OW 3826   2.350   3.247   2.036
 1250SOL    HW1 3827   2.263   3.232   2.083
 1250SOL    HW2 3828   2.333   3.273   1.941
 1251SOL     OW 3829   3.252   2.437   1.940
 1251SOL    HW1 3830   3.198   2.416   2.021
 1251SOL    HW2 3831   3.343   2.396   1.949
 1252SOL     OW 3832   2.389   2.118   2.190
 1252SOL    HW1 3833   2.416   2.059   2.115
 1252SOL    HW2 3834   2.389   2.213   2.159
 1253SOL     OW 3835   2.926   3.209   3.202
 1253SOL    HW1 3836   2.846   3.186   3.257
 1253SOL    HW2 3837   3.009   3.183   3.251
 1254SOL     OW 3838   2.973   3.057   2.962
 1254SOL    HW1 3839   2.933   3.101   3.043
 1254SOL    HW2 3840   2.932   3.094   2.879
 1255SOL     OW 3841   2.777   1.951   3.264
 1255SOL    HW1 3842   2.802   1.931   3.169
 1255SOL    HW2 3843   2.849   2.007   3.306
 1256SOL     OW 3844   2.567   2.912   2.230
 1256SOL    HW1 3845   2.553   2.919   2.329
 1256SOL    HW2 3846   2.651   2.861   2.212
 1257SOL     OW 3847   2.272   2.675   3.113
 1257SOL    HW1 3848   2.358   2.687   3.163
 1257SOL    HW2 3849   2.230   2.588   3.140
 1258SOL     OW 3850   3.136   2.248   3.124
 1258SOL    HW1 3851   3.157   2.322   3.188
 1258SOL    HW2 3852   3.047   2.265   3.081
 1259SOL     OW 3853   2.229   2.962   2.363
 1259SOL    HW1 3854   2.222   3.045   2.307
 1259SOL    HW2 3855   2.233   2.882   2.303
 1260SOL     OW 3856   2.428   2.399   2.727
 1260SOL    HW1 3857   2.440   2.465   2.653
 1260SOL    HW2 3858   2.474   2.433   2.810
 1261SOL     OW 3859   3.114   3.210   2.250
 1261SOL    HW1 3860   3.164   3.287   2.290
 1261SOL    HW2 3861   3.019   3.212   2.282
 1262SOL     OW 3862   3.134   3.307   3.004
 1262SOL    HW1 3863   3.181   3.320   3.091
 1262SOL    HW2 3864   3.068   3.233   3.013
 1263SOL     OW 3865   2.216   3.372   3.191
 1263SOL    HW1 3866   2.195   3.328   3.104
 1263SOL    HW2 3867   2.313   3.398   3.194
 1264SOL     OW 3868   2.264   2.613   3.460
 1264SOL    HW1 3869   2.332   2.668   3.413
 1264SOL    HW2 3870   2.304   2.525   3.487
 1265SOL     OW 3871   3.449   2.641   3.532
 1265SOL    HW1 3872   3.357   2.679   3.527
 1265SOL    HW2 3873   3.509   2.688   3.467
 1266SOL     OW 3874   2.435   2.732   2.891
 1266SOL    HW1 3875   2.479   2.821   2.882
 1266SOL    HW2 3876   2.372   2.732   2.968
 1267SOL     OW 3877   3.222   2.724   2.907
 1267SOL    HW1 3878   3.147   2.724   2.841
 1267SOL    HW2 3879   3.259   2.632   2.916
 1268SOL     OW 3880   3.071   2.387   2.137
 1268SOL    HW1 3881   3.084   2.303   2.191
 1268SOL    HW2 3882   3.042   2.461   2.197
 1269SOL     OW 3883   2.169   2.075   3.093
 1269SOL    HW1 3884   2.146   2.112   3.183
 1269SOL    HW2 3885   2.139   1.980   3.087
 1270SOL     OW 3886   1.899   3.172   3.144
 1270SOL    HW1 3887   1.952   3.123   3.212
 1270SOL    HW2 3888   1.921   3.270   3.149
 1271SOL     OW 3889   2.594   2.496   2.926
 1271SOL    HW1 3890   2.653   2.470   2.850
 1271SOL    HW2 3891   2.566   2.592   2.915
 1272SOL     OW 3892   2.169   1.925   2.480
 1272SOL    HW1 3893   2.158   2.019   2.513
 1272SOL    HW2 3894   2.164   1.862   2.557
 1273SOL     OW 3895   3.484   2.229   2.236
 1273SOL    HW1 3896   3.486   2.153   2.300
 1273SOL    HW2 3897   3.436   2.306   2.276
 1274SOL     OW 3898   2.885   2.628   2.828
 1274SOL    HW1 3899   2.900   2.649   2.924
 1274SOL    HW2 3900   2.855   2.533   2.819
 1275SOL     OW 3901   3.165   2.700   1.904
 1275SOL    HW1 3902   3.199   2.607   1.919
 1275SOL    HW2 3903   3.183   2.727   1.809
 1276SOL     OW 3904   2.930   3.195   2.711
 1276SOL    HW1 3905   2.937   3.111   2.656
 1276SOL    HW2 3906   2.992   3.264   2.675
 1277SOL     OW 3907   2.181   2.672   2.811
 1277SOL    HW1 3908   2.274   2.708   2.816
 1277SOL    HW2 3909   2.175   2.587   2.863
 1278SOL     OW 3910   2.201   2.371   2.868
 1278SOL    HW1 3911   2.149   2.288   2.851
 1278SOL    HW2 3912   2.278   2.376   2.804
 1279SOL     OW 3913   3.000   2.242   3.540
 1279SOL    HW1 3914   2.955   2.305   3.604
 1279SOL    HW2 3915   3.093   2.273   3.523
 1280SOL     OW 3916   3.022   2.069   3.339
 1280SOL    HW1 3917   3.022   2.133   3.416
 1280SOL    HW2 3918   3.050   2.117   3.256
 1281SOL     OW 3919   1.870   3.188   2.062
 1281SOL    HW1 3920   1.777   3.209   2.031
 1281SOL    HW2 3921   1.880   3.089   2.075
 1282SOL     OW 3922   2.366   3.430   2.772
 1282SOL    HW1 3923   2.432   3.504   2.781
 1282SOL    HW2 3924   2.410   3.351   2.730
 1283SOL     OW 3925   2.864   2.658   3.100
 1283SOL    HW1 3926   2.905   2.626   3.186
 1283SOL    HW2 3927   2.768   2.631   3.097
 1284SOL     OW 3928   1.902   2.406   2.976
 1284SOL    HW1 3929   1.987   2.373   2.935
 1284SOL    HW2 3930   1.915   2.421   3.074
 1285SOL     OW 3931   2.677   2.434   2.187
 1285SOL    HW1 3932   2.684   2.345   2.141
 1285SOL    HW2 3933   2.583   2.468   2.179
 1286SOL     OW 3934   2.533   2.326   3.131
 1286SOL    HW1 3935   2.499   2.237   3.101
 1286SOL    HW2 3936   2.559   2.380   3.051
 1287SOL     OW 3937   2.335   2.362   2.053
 1287SOL    HW1 3938   2.396   2.442   2.057
 1287SOL    HW2 3939   2.240   2.393   2.060
 1288SOL     OW 3940   2.021   2.999   3.328
 1288SOL    HW1 3941   2.043   2.938   3.404
 1288SOL    HW2 3942   2.031   2.950   3.242
 1289SOL     OW 3943   3.209   2.921   3.096
 1289SOL    HW1 3944   3.233   2.858   3.022
 1289SOL    HW2 3945   3.119   2.961   3.078
 1290SOL     OW 3946   3.164   2.717   2.171
 1290SOL    HW1 3947   3.078   2.686   2.213
 1290SOL    HW2 3948   3.160   2.703   2.072
 1291SOL     OW 3949   1.945   3.120   2.884
 1291SOL    HW1 3950   1.940   3.119   2.984
 1291SOL    HW2 3951   1.862   3.079   2.846
 1292SOL     OW 3952   3.588   1.997   2.385
 1292SOL    HW1 3953   3.661   1.980   2.318
 1292SOL    HW2 3954   3.557   1.910   2.423
 1293SOL     OW 3955   3.142   2.789   2.534
 1293SOL    HW1 3956   3.202   2.708   2.536
 1293SOL    HW2 3957   3.182   2.858   2.474
 1294SOL     OW 3958   2.125   2.188   2.582
 1294SOL    HW1 3959   2.046   2.239   2.548
 1294SOL    HW2 3960   2.116   2.173   2.680
 1295SOL     OW 3961   2.684   2.864   3.234
 1295SOL    HW1 3962   2.724   2.863   3.142
 1295SOL    HW2 3963   2.694   2.956   3.274
 1296SOL     OW 3964   2.778   2.772   2.153
 1296SOL    HW1 3965   2.841   2.810   2.085
 1296SOL    HW2 3966   2.818   2.689   2.192
 1297SOL     OW 3967   2.234   3.150   3.352
 1297SOL    HW1 3968   2.221   3.243   3.318
 1297SOL    HW2 3969   2.150   3.098   3.339
 1298SOL     OW 3970   2.901   2.960   2.558
 1298SOL    HW1 3971   2.831   2.913   2.612
 1298SOL    HW2 3972   2.960   2.892   2.515
 1299SOL     OW 3973   2.876   2.098   2.833
 1299SOL    HW1 3974   2.868   2.062   2.740
 1299SOL    HW2 3975   2.874   2.022   2.898
 1300SOL     OW 3976   2.117   3.210   2.152
 1300SOL    HW1 3977   2.021   3.211   2.125
 1300SOL    HW2 3978   2.129   3.263   2.236
 1301SOL     OW 3979   1.967   2.875   3.588
 1301SOL    HW1 3980   1.890   2.842   3.642
 1301SOL    HW2 3981   2.052   2.845   3.630
 1302SOL     OW 3982   2.534   2.065   3.351
 1302SOL    HW1 3983   2.624   2.049   3.311
 1302SOL    HW2 3984   2.542   2.070   3.450
 1303SOL     OW 3985   1.937   2.207   1.895
 1303SOL    HW1 3986   1.845   2.179   1.866
 1303SOL    HW2 3987   1.968   2.284   1.839
 1304SOL     OW 3988   3.302   2.718   3.260
 1304SOL    HW1 3989   3.245   2.770   3.197
 1304SOL    HW2 3990   3.398   2.730   3.236
 1305SOL     OW 3991   3.045   3.197   1.981
 1305SOL    HW1 3992   2.946   3.186   1.983
 1305SOL    HW2 3993   3.079   3.212   2.074
 1306SOL     OW 3994   2.475   2.704   3.293
 1306SOL    HW1 3995   2.531   2.785   3.276
 1306SOL    HW2 3996   2.534   2.624   3.296
 1307SOL     OW 3997   2.578   2.427   3.570
 1307SOL    HW1 3998   2.597   2.492   3.644
 1307SOL    HW2 3999   2.638   2.347   3.579
 1308SOL     OW 4000   3.087   2.187   2.311
 1308SOL    HW1 4001   3.152   2.113   2.300
 1308SOL    HW2 4002   3.107   2.237   2.395
 1309SOL     OW 4003   2.456   2.607   2.514
 1309SOL    HW1 4004   2.506   2.692   2.495
 1309SOL    HW2 4005   2.368   2.609   2.466
 1310SOL     OW 4006   2.721   3.236   1.878
 1310SOL    HW1 4007   2.675   3.251   1.966
 1310SOL    HW2 4008   2.765   3.321   1.848
 1311SOL     OW 4009   3.270   3.713   3.582
 1311SOL    HW1 4010   3.174   3.702   3.555
 1311SOL    HW2 4011   3.326   3.646   3.534
 1312SOL     OW 4012   2.721   2.818   2.723
 1312SOL    HW1 4013   2.775   2.749   2.771
 1312SOL    HW2 4014   2.689   2.887   2.789
 1313SOL     OW 4015   2.945   2.846   1.949
 1313SOL    HW1 4016   2.922   2.899   1.867
 1313SOL    HW2 4017   3.026   2.790   1.930
 1314SOL     OW 4018   1.941   3.102   2.515
 1314SOL    HW1 4019   1.940   3.055   2.603
 1314SOL    HW2 4020   2.023   3.074   2.464
 1315SOL     OW 4021   2.534   3.253   3.486
 1315SOL    HW1 4022   2.456   3.203   3.524
 1315SOL    HW2 4023   2.531   3.348   3.517
 1316SOL     OW 4024   2.290   2.286   2.382
 1316SOL    HW1 4025   2.320   2.214   2.320
 1316SOL    HW2 4026   2.251   2.246   2.465
 1317SOL     OW 4027   2.179   2.409   3.142
 1317SOL    HW1 4028   2.217   2.350   3.214
 1317SOL    HW2 4029   2.219   2.383   3.054
 1318SOL     OW 4030   3.286   2.076   2.974
 1318SOL    HW1 4031   3.338   2.011   3.029
 1318SOL    HW2 4032   3.237   2.139   3.035
 1319SOL     OW 4033   2.863   1.896   3.016
 1319SOL    HW1 4034   2.800   1.824   2.985
 1319SOL    HW2 4035   2.956   1.860   3.016
 1320SOL     OW 4036   2.632   3.192   2.163
 1320SOL    HW1 4037   2.586   3.105   2.180
 1320SOL    HW2 4038   2.723   3.189   2.204
 1321SOL     OW 4039   2.480   3.429   3.146
 1321SOL    HW1 4040   2.475   3.511   3.203
 1321SOL    HW2 4041   2.569   3.426   3.101
 1322SOL     OW 4042   3.214   1.914   2.030
 1322SOL    HW1 4043   3.249   1.873   1.946
 1322SOL    HW2 4044   3.124   1.876   2.050
 1323SOL     OW 4045   3.162   2.315   2.553
 1323SOL    HW1 4046   3.103   2.395   2.557
 1323SOL    HW2 4047   3.177   2.280   2.646
 1324SOL     OW 4048   3.455   2.083   2.744
 1324SOL    HW1 4049   3.371   2.082   2.798
 1324SOL    HW2 4050   3.457   2.166   2.688
 1325SOL     OW 4051   1.901   2.939   2.162
 1325SOL    HW1 4052   2.000   2.928   2.153
 1325SOL    HW2 4053   1.861   2.853   2.194
   3.46347   3.46347   3.46347
