; Created by cgenff_charmm2gmx.py

[ moleculetype ]
; Name			   nrexcl
JZ4				 3

[ atoms ]
;	 nr		  type	resnr residue  atom   cgnr	   charge		mass  typeB    chargeB		massB
; residue	 1 JZ4 rtp JZ4 q	qsum
     1     CG2R61      1    JZ4     C1      1     -0.114     12.011   ;
     2     CG2R61      1    JZ4     C2      2      0.028     12.011   ;
     3     CG2R61      1    JZ4     C3      3     -0.125     12.011   ;
     4     CG2R61      1    JZ4     C4      4      0.098     12.011   ;
     5     CG2R61      1    JZ4     C5      5     -0.059     12.011   ;
     6     CG2R61      1    JZ4     C6      6     -0.139     12.011   ;
     7      CG301      1    JZ4     C7      7     -0.006     12.011   ;
     8      CG321      1    JZ4     C8      8     -0.217     12.011   ;
     9      CG321      1    JZ4     C9      9     -0.243     12.011   ;
    10     CG2DC1      1    JZ4    C10     10      0.027     12.011   ;
    11     CG2DC1      1    JZ4    C11     11     -0.164     12.011   ;
    12      CG331      1    JZ4    C12     12     -0.264     12.011   ;
    13      CG331      1    JZ4    C13     13     -0.271     12.011   ;
    14      CG331      1    JZ4    C14     14     -0.271     12.011   ;
    15     CG2DC2      1    JZ4    C15     15      0.065     12.011   ;
    16     CG2DC2      1    JZ4    C16     16      0.003     12.011   ;
    17     CG3RC1      1    JZ4    C17     17      0.350     12.011   ;
    18     NG3C51      1    JZ4    N18     18     -0.469     14.007   ;
    19      CG321      1    JZ4    C19     19      0.067     12.011   ;
    20     CG3C51      1    JZ4    C20     20     -0.001     12.011   ;
    21     NG3C51      1    JZ4    N21     21     -0.406     14.007   ;
    22     NG3C51      1    JZ4    N22     22     -0.294     14.007   ;
    23     CG2R61      1    JZ4    C23     23     -0.013     12.011   ;
    24     CG2R61      1    JZ4    C24     24     -0.076     12.011   ;
    25     CG2R61      1    JZ4    C25     25     -0.005     12.011   ;
    26     CG2R61      1    JZ4    C26     26     -0.121     12.011   ;
    27     CG2R61      1    JZ4    C27     27     -0.115     12.011   ;
    28     CG2R61      1    JZ4    C28     28     -0.115     12.011   ;
    29     CG2R61      1    JZ4    C29     29     -0.115     12.011   ;
    30     CG2R61      1    JZ4    C30     30     -0.121     12.011   ;
    31     CG2R61      1    JZ4    C31     31     -0.123     12.011   ;
    32     CG2R61      1    JZ4    C32     32     -0.115     12.011   ;
    33     CG2R61      1    JZ4    C33     33     -0.115     12.011   ;
    34     CG2R61      1    JZ4    C34     34     -0.115     12.011   ;
    35     CG2R61      1    JZ4    C35     35     -0.123     12.011   ;
    36     CG2R61      1    JZ4    C36     36     -0.122     12.011   ;
    37     CG2R61      1    JZ4    C37     37     -0.118     12.011   ;
    38     CG2R61      1    JZ4    C38     38      0.081     12.011   ;
    39     CG2R61      1    JZ4    C39     39     -0.118     12.011   ;
    40     CG2R61      1    JZ4    C40     40     -0.122     12.011   ;
    41      CG301      1    JZ4    C41     41     -0.056     12.011   ;
    42      CG331      1    JZ4    C42     42     -0.271     12.011   ;
    43      CG331      1    JZ4    C43     43     -0.271     12.011   ;
    44      CG331      1    JZ4    C44     44     -0.271     12.011   ;
    45      HGR61      1    JZ4    H45     45      0.115      1.008   ;
    46      HGR61      1    JZ4    H46     46      0.115      1.008   ;
    47      HGR61      1    JZ4    H47     47      0.115      1.008   ;
    48       HGA2      1    JZ4    H48     48      0.090      1.008   ;
    49       HGA2      1    JZ4    H49     49      0.090      1.008   ;
    50       HGA2      1    JZ4    H50     50      0.090      1.008   ;
    51       HGA2      1    JZ4    H51     51      0.090      1.008   ;
    52       HGA3      1    JZ4    H52     52      0.090      1.008   ;
    53       HGA3      1    JZ4    H53     53      0.090      1.008   ;
    54       HGA3      1    JZ4    H54     54      0.090      1.008   ;
    55       HGA3      1    JZ4    H55     55      0.090      1.008   ;
    56       HGA3      1    JZ4    H56     56      0.090      1.008   ;
    57       HGA3      1    JZ4    H57     57      0.090      1.008   ;
    58       HGA3      1    JZ4    H58     58      0.090      1.008   ;
    59       HGA3      1    JZ4    H59     59      0.090      1.008   ;
    60       HGA3      1    JZ4    H60     60      0.090      1.008   ;
    61       HGA2      1    JZ4    H61     61      0.090      1.008   ;
    62       HGA2      1    JZ4    H62     62      0.090      1.008   ;
    63      HGR61      1    JZ4    H63     63      0.115      1.008   ;
    64      HGR61      1    JZ4    H64     64      0.115      1.008   ;
    65      HGR61      1    JZ4    H65     65      0.115      1.008   ;
    66      HGR61      1    JZ4    H66     66      0.115      1.008   ;
    67      HGR61      1    JZ4    H67     67      0.115      1.008   ;
    68      HGR61      1    JZ4    H68     68      0.115      1.008   ;
    69      HGR61      1    JZ4    H69     69      0.115      1.008   ;
    70      HGR61      1    JZ4    H70     70      0.115      1.008   ;
    71      HGR61      1    JZ4    H71     71      0.115      1.008   ;
    72      HGR61      1    JZ4    H72     72      0.115      1.008   ;
    73      HGR61      1    JZ4    H73     73      0.115      1.008   ;
    74      HGR61      1    JZ4    H74     74      0.115      1.008   ;
    75      HGR61      1    JZ4    H75     75      0.115      1.008   ;
    76      HGR61      1    JZ4    H76     76      0.115      1.008   ;
    77       HGA3      1    JZ4    H77     77      0.090      1.008   ;
    78       HGA3      1    JZ4    H78     78      0.090      1.008   ;
    79       HGA3      1    JZ4    H79     79      0.090      1.008   ;
    80       HGA3      1    JZ4    H80     80      0.090      1.008   ;
    81       HGA3      1    JZ4    H81     81      0.090      1.008   ;
    82       HGA3      1    JZ4    H82     82      0.090      1.008   ;
    83       HGA3      1    JZ4    H83     83      0.090      1.008   ;
    84       HGA3      1    JZ4    H84     84      0.090      1.008   ;
    85       HGA3      1    JZ4    H85     85      0.090      1.008   ;
    86       HGA1      1    JZ4     H1     86      0.090      1.008   ;
    87       HGA1      1    JZ4     H2     87      0.116      1.008   ;
    88       HGP1      1    JZ4     H3     88      0.297      1.008   ;
    89       HGP1      1    JZ4     H4     89      0.327      1.008   ;

[ bonds ]
;	ai	  aj funct			  c0			c1			  c2			c3
    1     2	 1 ;      CG2R61     CG2R61
    1    45	 1 ;      CG2R61      HGR61
    1     6	 1 ;      CG2R61     CG2R61
    2    12	 1 ;      CG2R61      CG331
    2     3	 1 ;      CG2R61     CG2R61
    3    46	 1 ;      CG2R61      HGR61
    3     4	 1 ;      CG2R61     CG2R61
    4     7	 1 ;      CG2R61      CG301
    4     5	 1 ;      CG2R61     CG2R61
    5     6	 1 ;      CG2R61     CG2R61
    5    11	 1 ;      CG2R61     CG2DC1
    6    47	 1 ;      CG2R61      HGR61
    7    13	 1 ;       CG301      CG331
    7     8	 1 ;       CG301      CG321
    7    14	 1 ;       CG301      CG331
    8    48	 1 ;       CG321       HGA2
    8    49	 1 ;       CG321       HGA2
    8     9	 1 ;       CG321      CG321
    9    51	 1 ;       CG321       HGA2
    9    50	 1 ;       CG321       HGA2
    9    10	 1 ;       CG321     CG2DC1
   10    11	 1 ;      CG2DC1     CG2DC1
   10    15	 1 ;      CG2DC1     CG2DC2
   11    19	 1 ;      CG2DC1      CG321
   12    54	 1 ;       CG331       HGA3
   12    52	 1 ;       CG331       HGA3
   12    53	 1 ;       CG331       HGA3
   13    57	 1 ;       CG331       HGA3
   13    55	 1 ;       CG331       HGA3
   13    56	 1 ;       CG331       HGA3
   14    60	 1 ;       CG331       HGA3
   14    58	 1 ;       CG331       HGA3
   14    59	 1 ;       CG331       HGA3
   15    25	 1 ;      CG2DC2     CG2R61
   15    16	 1 ;      CG2DC2     CG2DC2
   16    17	 1 ;      CG2DC2     CG3RC1
   16    24	 1 ;      CG2DC2     CG2R61
   17    18	 1 ;      CG3RC1     NG3C51
   17    20	 1 ;      CG3RC1     CG3C51
   17    86	 1 ;      CG3RC1       HGA1
   18    19	 1 ;      NG3C51      CG321
   18    22	 1 ;      NG3C51     NG3C51
   19    61	 1 ;       CG321       HGA2
   19    62	 1 ;       CG321       HGA2
   20    21	 1 ;      CG3C51     NG3C51
   20    23	 1 ;      CG3C51     CG2R61
   20    87	 1 ;      CG3C51       HGA1
   21    22	 1 ;      NG3C51     NG3C51
   21    88	 1 ;      NG3C51       HGP1
   22    89	 1 ;      NG3C51       HGP1
   23    40	 1 ;      CG2R61     CG2R61
   23    36	 1 ;      CG2R61     CG2R61
   24    30	 1 ;      CG2R61     CG2R61
   24    26	 1 ;      CG2R61     CG2R61
   25    35	 1 ;      CG2R61     CG2R61
   25    31	 1 ;      CG2R61     CG2R61
   26    63	 1 ;      CG2R61      HGR61
   26    27	 1 ;      CG2R61     CG2R61
   27    28	 1 ;      CG2R61     CG2R61
   27    64	 1 ;      CG2R61      HGR61
   28    29	 1 ;      CG2R61     CG2R61
   28    65	 1 ;      CG2R61      HGR61
   29    30	 1 ;      CG2R61     CG2R61
   29    66	 1 ;      CG2R61      HGR61
   30    67	 1 ;      CG2R61      HGR61
   31    32	 1 ;      CG2R61     CG2R61
   31    68	 1 ;      CG2R61      HGR61
   32    33	 1 ;      CG2R61     CG2R61
   32    69	 1 ;      CG2R61      HGR61
   33    70	 1 ;      CG2R61      HGR61
   33    34	 1 ;      CG2R61     CG2R61
   34    71	 1 ;      CG2R61      HGR61
   34    35	 1 ;      CG2R61     CG2R61
   35    72	 1 ;      CG2R61      HGR61
   36    73	 1 ;      CG2R61      HGR61
   36    37	 1 ;      CG2R61     CG2R61
   37    74	 1 ;      CG2R61      HGR61
   37    38	 1 ;      CG2R61     CG2R61
   38    39	 1 ;      CG2R61     CG2R61
   38    41	 1 ;      CG2R61      CG301
   39    40	 1 ;      CG2R61     CG2R61
   39    75	 1 ;      CG2R61      HGR61
   40    76	 1 ;      CG2R61      HGR61
   41    42	 1 ;       CG301      CG331
   41    43	 1 ;       CG301      CG331
   41    44	 1 ;       CG301      CG331
   42    79	 1 ;       CG331       HGA3
   42    78	 1 ;       CG331       HGA3
   42    77	 1 ;       CG331       HGA3
   43    81	 1 ;       CG331       HGA3
   43    82	 1 ;       CG331       HGA3
   43    80	 1 ;       CG331       HGA3
   44    85	 1 ;       CG331       HGA3
   44    84	 1 ;       CG331       HGA3
   44    83	 1 ;       CG331       HGA3

[ pairs ]
;	ai	  aj funct			  c0			c1			  c2			c3
    1    54	 1
    1    52	 1
    1    53	 1
    1    46	 1
    1     4	 1
    1    11	 1
    2     5	 1
    2    47	 1
    2     7	 1
    3    45	 1
    3     6	 1
    3    54	 1
    3    52	 1
    3    53	 1
    3    13	 1
    3     8	 1
    3    14	 1
    3    11	 1
    4    12	 1
    4    47	 1
    4    10	 1
    4    19	 1
    4    57	 1
    4    55	 1
    4    56	 1
    4    48	 1
    4    49	 1
    4     9	 1
    4    60	 1
    4    58	 1
    4    59	 1
    5    45	 1
    5    46	 1
    5    13	 1
    5     8	 1
    5    14	 1
    5     9	 1
    5    15	 1
    5    18	 1
    5    61	 1
    5    62	 1
    6    12	 1
    6     7	 1
    6    10	 1
    6    19	 1
    7    46	 1
    7    11	 1
    7    51	 1
    7    50	 1
    7    10	 1
    8    57	 1
    8    55	 1
    8    56	 1
    8    60	 1
    8    58	 1
    8    59	 1
    8    11	 1
    8    15	 1
    9    13	 1
    9    14	 1
    9    19	 1
    9    25	 1
    9    16	 1
   10    48	 1
   10    49	 1
   10    18	 1
   10    61	 1
   10    62	 1
   10    35	 1
   10    31	 1
   10    17	 1
   10    24	 1
   11    47	 1
   11    51	 1
   11    50	 1
   11    25	 1
   11    16	 1
   11    17	 1
   11    22	 1
   12    45	 1
   12    46	 1
   13    48	 1
   13    49	 1
   13    60	 1
   13    58	 1
   13    59	 1
   14    57	 1
   14    55	 1
   14    56	 1
   14    48	 1
   14    49	 1
   15    51	 1
   15    50	 1
   15    19	 1
   15    18	 1
   15    20	 1
   15    86	 1
   15    30	 1
   15    26	 1
   15    34	 1
   15    72	 1
   15    32	 1
   15    68	 1
   16    35	 1
   16    31	 1
   16    19	 1
   16    22	 1
   16    21	 1
   16    23	 1
   16    87	 1
   16    29	 1
   16    67	 1
   16    63	 1
   16    27	 1
   17    25	 1
   17    30	 1
   17    26	 1
   17    61	 1
   17    62	 1
   17    89	 1
   17    88	 1
   17    40	 1
   17    36	 1
   18    24	 1
   18    23	 1
   18    87	 1
   18    88	 1
   19    20	 1
   19    86	 1
   19    21	 1
   19    89	 1
   20    24	 1
   20    89	 1
   20    39	 1
   20    76	 1
   20    73	 1
   20    37	 1
   21    86	 1
   21    40	 1
   21    36	 1
   22    86	 1
   22    61	 1
   22    62	 1
   22    23	 1
   22    87	 1
   23    86	 1
   23    88	 1
   23    74	 1
   23    38	 1
   23    75	 1
   24    25	 1
   24    86	 1
   24    28	 1
   24    64	 1
   24    66	 1
   25    33	 1
   25    69	 1
   25    71	 1
   26    29	 1
   26    67	 1
   26    65	 1
   27    30	 1
   27    66	 1
   28    63	 1
   28    67	 1
   29    64	 1
   30    63	 1
   30    65	 1
   31    34	 1
   31    72	 1
   31    70	 1
   32    35	 1
   32    71	 1
   33    68	 1
   33    72	 1
   34    69	 1
   35    68	 1
   35    70	 1
   36    87	 1
   36    39	 1
   36    76	 1
   36    41	 1
   37    40	 1
   37    75	 1
   37    42	 1
   37    43	 1
   37    44	 1
   38    73	 1
   38    76	 1
   38    79	 1
   38    78	 1
   38    77	 1
   38    81	 1
   38    82	 1
   38    80	 1
   38    85	 1
   38    84	 1
   38    83	 1
   39    74	 1
   39    42	 1
   39    43	 1
   39    44	 1
   40    87	 1
   40    73	 1
   40    41	 1
   41    74	 1
   41    75	 1
   42    81	 1
   42    82	 1
   42    80	 1
   42    85	 1
   42    84	 1
   42    83	 1
   43    79	 1
   43    78	 1
   43    77	 1
   43    85	 1
   43    84	 1
   43    83	 1
   44    79	 1
   44    78	 1
   44    77	 1
   44    81	 1
   44    82	 1
   44    80	 1
   45    47	 1
   48    51	 1
   48    50	 1
   49    51	 1
   49    50	 1
   63    64	 1
   64    65	 1
   65    66	 1
   66    67	 1
   68    69	 1
   69    70	 1
   70    71	 1
   71    72	 1
   73    74	 1
   75    76	 1
   86    87	 1
   87    88	 1
   88    89	 1

[ angles ]
;	ai	  aj	ak funct			c0			  c1			c2			  c3
    2     1    45	5 ;     CG2R61     CG2R61      HGR61
    2     1     6	5 ;     CG2R61     CG2R61     CG2R61
   45     1     6	5 ;      HGR61     CG2R61     CG2R61
    1     2    12	5 ;     CG2R61     CG2R61      CG331
    1     2     3	5 ;     CG2R61     CG2R61     CG2R61
   12     2     3	5 ;      CG331     CG2R61     CG2R61
    2     3    46	5 ;     CG2R61     CG2R61      HGR61
    2     3     4	5 ;     CG2R61     CG2R61     CG2R61
   46     3     4	5 ;      HGR61     CG2R61     CG2R61
    3     4     7	5 ;     CG2R61     CG2R61      CG301
    3     4     5	5 ;     CG2R61     CG2R61     CG2R61
    7     4     5	5 ;      CG301     CG2R61     CG2R61
    4     5     6	5 ;     CG2R61     CG2R61     CG2R61
    4     5    11	5 ;     CG2R61     CG2R61     CG2DC1
    6     5    11	5 ;     CG2R61     CG2R61     CG2DC1
    1     6     5	5 ;     CG2R61     CG2R61     CG2R61
    1     6    47	5 ;     CG2R61     CG2R61      HGR61
    5     6    47	5 ;     CG2R61     CG2R61      HGR61
    4     7    13	5 ;     CG2R61      CG301      CG331
    4     7     8	5 ;     CG2R61      CG301      CG321
    4     7    14	5 ;     CG2R61      CG301      CG331
   13     7     8	5 ;      CG331      CG301      CG321
   13     7    14	5 ;      CG331      CG301      CG331
    8     7    14	5 ;      CG321      CG301      CG331
    7     8    48	5 ;      CG301      CG321       HGA2
    7     8    49	5 ;      CG301      CG321       HGA2
    7     8     9	5 ;      CG301      CG321      CG321
   48     8    49	5 ;       HGA2      CG321       HGA2
   48     8     9	5 ;       HGA2      CG321      CG321
   49     8     9	5 ;       HGA2      CG321      CG321
    8     9    51	5 ;      CG321      CG321       HGA2
    8     9    50	5 ;      CG321      CG321       HGA2
    8     9    10	5 ;      CG321      CG321     CG2DC1
   51     9    50	5 ;       HGA2      CG321       HGA2
   51     9    10	5 ;       HGA2      CG321     CG2DC1
   50     9    10	5 ;       HGA2      CG321     CG2DC1
    9    10    11	5 ;      CG321     CG2DC1     CG2DC1
    9    10    15	5 ;      CG321     CG2DC1     CG2DC2
   11    10    15	5 ;     CG2DC1     CG2DC1     CG2DC2
    5    11    10	5 ;     CG2R61     CG2DC1     CG2DC1
    5    11    19	5 ;     CG2R61     CG2DC1      CG321
   10    11    19	5 ;     CG2DC1     CG2DC1      CG321
    2    12    54	5 ;     CG2R61      CG331       HGA3
    2    12    52	5 ;     CG2R61      CG331       HGA3
    2    12    53	5 ;     CG2R61      CG331       HGA3
   54    12    52	5 ;       HGA3      CG331       HGA3
   54    12    53	5 ;       HGA3      CG331       HGA3
   52    12    53	5 ;       HGA3      CG331       HGA3
    7    13    57	5 ;      CG301      CG331       HGA3
    7    13    55	5 ;      CG301      CG331       HGA3
    7    13    56	5 ;      CG301      CG331       HGA3
   57    13    55	5 ;       HGA3      CG331       HGA3
   57    13    56	5 ;       HGA3      CG331       HGA3
   55    13    56	5 ;       HGA3      CG331       HGA3
    7    14    60	5 ;      CG301      CG331       HGA3
    7    14    58	5 ;      CG301      CG331       HGA3
    7    14    59	5 ;      CG301      CG331       HGA3
   60    14    58	5 ;       HGA3      CG331       HGA3
   60    14    59	5 ;       HGA3      CG331       HGA3
   58    14    59	5 ;       HGA3      CG331       HGA3
   10    15    25	5 ;     CG2DC1     CG2DC2     CG2R61
   10    15    16	5 ;     CG2DC1     CG2DC2     CG2DC2
   25    15    16	5 ;     CG2R61     CG2DC2     CG2DC2
   15    16    17	5 ;     CG2DC2     CG2DC2     CG3RC1
   15    16    24	5 ;     CG2DC2     CG2DC2     CG2R61
   17    16    24	5 ;     CG3RC1     CG2DC2     CG2R61
   16    17    18	5 ;     CG2DC2     CG3RC1     NG3C51
   16    17    20	5 ;     CG2DC2     CG3RC1     CG3C51
   16    17    86	5 ;     CG2DC2     CG3RC1       HGA1
   18    17    20	5 ;     NG3C51     CG3RC1     CG3C51
   18    17    86	5 ;     NG3C51     CG3RC1       HGA1
   20    17    86	5 ;     CG3C51     CG3RC1       HGA1
   17    18    19	5 ;     CG3RC1     NG3C51      CG321
   17    18    22	5 ;     CG3RC1     NG3C51     NG3C51
   19    18    22	5 ;      CG321     NG3C51     NG3C51
   11    19    18	5 ;     CG2DC1      CG321     NG3C51
   11    19    61	5 ;     CG2DC1      CG321       HGA2
   11    19    62	5 ;     CG2DC1      CG321       HGA2
   18    19    61	5 ;     NG3C51      CG321       HGA2
   18    19    62	5 ;     NG3C51      CG321       HGA2
   61    19    62	5 ;       HGA2      CG321       HGA2
   17    20    21	5 ;     CG3RC1     CG3C51     NG3C51
   17    20    23	5 ;     CG3RC1     CG3C51     CG2R61
   17    20    87	5 ;     CG3RC1     CG3C51       HGA1
   21    20    23	5 ;     NG3C51     CG3C51     CG2R61
   21    20    87	5 ;     NG3C51     CG3C51       HGA1
   23    20    87	5 ;     CG2R61     CG3C51       HGA1
   20    21    22	5 ;     CG3C51     NG3C51     NG3C51
   20    21    88	5 ;     CG3C51     NG3C51       HGP1
   22    21    88	5 ;     NG3C51     NG3C51       HGP1
   18    22    21	5 ;     NG3C51     NG3C51     NG3C51
   18    22    89	5 ;     NG3C51     NG3C51       HGP1
   21    22    89	5 ;     NG3C51     NG3C51       HGP1
   20    23    40	5 ;     CG3C51     CG2R61     CG2R61
   20    23    36	5 ;     CG3C51     CG2R61     CG2R61
   40    23    36	5 ;     CG2R61     CG2R61     CG2R61
   16    24    30	5 ;     CG2DC2     CG2R61     CG2R61
   16    24    26	5 ;     CG2DC2     CG2R61     CG2R61
   30    24    26	5 ;     CG2R61     CG2R61     CG2R61
   15    25    35	5 ;     CG2DC2     CG2R61     CG2R61
   15    25    31	5 ;     CG2DC2     CG2R61     CG2R61
   35    25    31	5 ;     CG2R61     CG2R61     CG2R61
   24    26    63	5 ;     CG2R61     CG2R61      HGR61
   24    26    27	5 ;     CG2R61     CG2R61     CG2R61
   63    26    27	5 ;      HGR61     CG2R61     CG2R61
   26    27    28	5 ;     CG2R61     CG2R61     CG2R61
   26    27    64	5 ;     CG2R61     CG2R61      HGR61
   28    27    64	5 ;     CG2R61     CG2R61      HGR61
   27    28    29	5 ;     CG2R61     CG2R61     CG2R61
   27    28    65	5 ;     CG2R61     CG2R61      HGR61
   29    28    65	5 ;     CG2R61     CG2R61      HGR61
   28    29    30	5 ;     CG2R61     CG2R61     CG2R61
   28    29    66	5 ;     CG2R61     CG2R61      HGR61
   30    29    66	5 ;     CG2R61     CG2R61      HGR61
   24    30    29	5 ;     CG2R61     CG2R61     CG2R61
   24    30    67	5 ;     CG2R61     CG2R61      HGR61
   29    30    67	5 ;     CG2R61     CG2R61      HGR61
   25    31    32	5 ;     CG2R61     CG2R61     CG2R61
   25    31    68	5 ;     CG2R61     CG2R61      HGR61
   32    31    68	5 ;     CG2R61     CG2R61      HGR61
   31    32    33	5 ;     CG2R61     CG2R61     CG2R61
   31    32    69	5 ;     CG2R61     CG2R61      HGR61
   33    32    69	5 ;     CG2R61     CG2R61      HGR61
   32    33    70	5 ;     CG2R61     CG2R61      HGR61
   32    33    34	5 ;     CG2R61     CG2R61     CG2R61
   70    33    34	5 ;      HGR61     CG2R61     CG2R61
   33    34    71	5 ;     CG2R61     CG2R61      HGR61
   33    34    35	5 ;     CG2R61     CG2R61     CG2R61
   71    34    35	5 ;      HGR61     CG2R61     CG2R61
   25    35    34	5 ;     CG2R61     CG2R61     CG2R61
   25    35    72	5 ;     CG2R61     CG2R61      HGR61
   34    35    72	5 ;     CG2R61     CG2R61      HGR61
   23    36    73	5 ;     CG2R61     CG2R61      HGR61
   23    36    37	5 ;     CG2R61     CG2R61     CG2R61
   73    36    37	5 ;      HGR61     CG2R61     CG2R61
   36    37    74	5 ;     CG2R61     CG2R61      HGR61
   36    37    38	5 ;     CG2R61     CG2R61     CG2R61
   74    37    38	5 ;      HGR61     CG2R61     CG2R61
   37    38    39	5 ;     CG2R61     CG2R61     CG2R61
   37    38    41	5 ;     CG2R61     CG2R61      CG301
   39    38    41	5 ;     CG2R61     CG2R61      CG301
   38    39    40	5 ;     CG2R61     CG2R61     CG2R61
   38    39    75	5 ;     CG2R61     CG2R61      HGR61
   40    39    75	5 ;     CG2R61     CG2R61      HGR61
   23    40    39	5 ;     CG2R61     CG2R61     CG2R61
   23    40    76	5 ;     CG2R61     CG2R61      HGR61
   39    40    76	5 ;     CG2R61     CG2R61      HGR61
   38    41    42	5 ;     CG2R61      CG301      CG331
   38    41    43	5 ;     CG2R61      CG301      CG331
   38    41    44	5 ;     CG2R61      CG301      CG331
   42    41    43	5 ;      CG331      CG301      CG331
   42    41    44	5 ;      CG331      CG301      CG331
   43    41    44	5 ;      CG331      CG301      CG331
   41    42    79	5 ;      CG301      CG331       HGA3
   41    42    78	5 ;      CG301      CG331       HGA3
   41    42    77	5 ;      CG301      CG331       HGA3
   79    42    78	5 ;       HGA3      CG331       HGA3
   79    42    77	5 ;       HGA3      CG331       HGA3
   78    42    77	5 ;       HGA3      CG331       HGA3
   41    43    81	5 ;      CG301      CG331       HGA3
   41    43    82	5 ;      CG301      CG331       HGA3
   41    43    80	5 ;      CG301      CG331       HGA3
   81    43    82	5 ;       HGA3      CG331       HGA3
   81    43    80	5 ;       HGA3      CG331       HGA3
   82    43    80	5 ;       HGA3      CG331       HGA3
   41    44    85	5 ;      CG301      CG331       HGA3
   41    44    84	5 ;      CG301      CG331       HGA3
   41    44    83	5 ;      CG301      CG331       HGA3
   85    44    84	5 ;       HGA3      CG331       HGA3
   85    44    83	5 ;       HGA3      CG331       HGA3
   84    44    83	5 ;       HGA3      CG331       HGA3

[ dihedrals ]
;	ai	  aj	ak	  al funct			  c0			c1			  c2			c3			  c4			c5
   45     1     2    12	 9 ;      HGR61     CG2R61     CG2R61      CG331
   45     1     2     3	 9 ;      HGR61     CG2R61     CG2R61     CG2R61
    6     1     2    12	 9 ;     CG2R61     CG2R61     CG2R61      CG331
    6     1     2     3	 9 ;     CG2R61     CG2R61     CG2R61     CG2R61
    2     1     6     5	 9 ;     CG2R61     CG2R61     CG2R61     CG2R61
    2     1     6    47	 9 ;     CG2R61     CG2R61     CG2R61      HGR61
   45     1     6     5	 9 ;      HGR61     CG2R61     CG2R61     CG2R61
   45     1     6    47	 9 ;      HGR61     CG2R61     CG2R61      HGR61
    1     2    12    54	 9 ;     CG2R61     CG2R61      CG331       HGA3
    1     2    12    52	 9 ;     CG2R61     CG2R61      CG331       HGA3
    1     2    12    53	 9 ;     CG2R61     CG2R61      CG331       HGA3
    3     2    12    54	 9 ;     CG2R61     CG2R61      CG331       HGA3
    3     2    12    52	 9 ;     CG2R61     CG2R61      CG331       HGA3
    3     2    12    53	 9 ;     CG2R61     CG2R61      CG331       HGA3
    1     2     3    46	 9 ;     CG2R61     CG2R61     CG2R61      HGR61
    1     2     3     4	 9 ;     CG2R61     CG2R61     CG2R61     CG2R61
   12     2     3    46	 9 ;      CG331     CG2R61     CG2R61      HGR61
   12     2     3     4	 9 ;      CG331     CG2R61     CG2R61     CG2R61
    2     3     4     7	 9 ;     CG2R61     CG2R61     CG2R61      CG301
    2     3     4     5	 9 ;     CG2R61     CG2R61     CG2R61     CG2R61
   46     3     4     7	 9 ;      HGR61     CG2R61     CG2R61      CG301
   46     3     4     5	 9 ;      HGR61     CG2R61     CG2R61     CG2R61
    3     4     7    13	 9 ;     CG2R61     CG2R61      CG301      CG331
    3     4     7     8	 9 ;     CG2R61     CG2R61      CG301      CG321
    3     4     7    14	 9 ;     CG2R61     CG2R61      CG301      CG331
    5     4     7    13	 9 ;     CG2R61     CG2R61      CG301      CG331
    5     4     7     8	 9 ;     CG2R61     CG2R61      CG301      CG321
    5     4     7    14	 9 ;     CG2R61     CG2R61      CG301      CG331
    3     4     5     6	 9 ;     CG2R61     CG2R61     CG2R61     CG2R61
    3     4     5    11	 9 ;     CG2R61     CG2R61     CG2R61     CG2DC1
    7     4     5     6	 9 ;      CG301     CG2R61     CG2R61     CG2R61
    7     4     5    11	 9 ;      CG301     CG2R61     CG2R61     CG2DC1
    4     5     6     1	 9 ;     CG2R61     CG2R61     CG2R61     CG2R61
    4     5     6    47	 9 ;     CG2R61     CG2R61     CG2R61      HGR61
   11     5     6     1	 9 ;     CG2DC1     CG2R61     CG2R61     CG2R61
   11     5     6    47	 9 ;     CG2DC1     CG2R61     CG2R61      HGR61
    4     5    11    10	 9 ;     CG2R61     CG2R61     CG2DC1     CG2DC1
    4     5    11    19	 9 ;     CG2R61     CG2R61     CG2DC1      CG321
    6     5    11    10	 9 ;     CG2R61     CG2R61     CG2DC1     CG2DC1
    6     5    11    19	 9 ;     CG2R61     CG2R61     CG2DC1      CG321
    4     7    13    57	 9 ;     CG2R61      CG301      CG331       HGA3
    4     7    13    55	 9 ;     CG2R61      CG301      CG331       HGA3
    4     7    13    56	 9 ;     CG2R61      CG301      CG331       HGA3
    8     7    13    57	 9 ;      CG321      CG301      CG331       HGA3
    8     7    13    55	 9 ;      CG321      CG301      CG331       HGA3
    8     7    13    56	 9 ;      CG321      CG301      CG331       HGA3
   14     7    13    57	 9 ;      CG331      CG301      CG331       HGA3
   14     7    13    55	 9 ;      CG331      CG301      CG331       HGA3
   14     7    13    56	 9 ;      CG331      CG301      CG331       HGA3
    4     7     8    48	 9 ;     CG2R61      CG301      CG321       HGA2
    4     7     8    49	 9 ;     CG2R61      CG301      CG321       HGA2
    4     7     8     9	 9 ;     CG2R61      CG301      CG321      CG321
   13     7     8    48	 9 ;      CG331      CG301      CG321       HGA2
   13     7     8    49	 9 ;      CG331      CG301      CG321       HGA2
   13     7     8     9	 9 ;      CG331      CG301      CG321      CG321
   14     7     8    48	 9 ;      CG331      CG301      CG321       HGA2
   14     7     8    49	 9 ;      CG331      CG301      CG321       HGA2
   14     7     8     9	 9 ;      CG331      CG301      CG321      CG321
    4     7    14    60	 9 ;     CG2R61      CG301      CG331       HGA3
    4     7    14    58	 9 ;     CG2R61      CG301      CG331       HGA3
    4     7    14    59	 9 ;     CG2R61      CG301      CG331       HGA3
   13     7    14    60	 9 ;      CG331      CG301      CG331       HGA3
   13     7    14    58	 9 ;      CG331      CG301      CG331       HGA3
   13     7    14    59	 9 ;      CG331      CG301      CG331       HGA3
    8     7    14    60	 9 ;      CG321      CG301      CG331       HGA3
    8     7    14    58	 9 ;      CG321      CG301      CG331       HGA3
    8     7    14    59	 9 ;      CG321      CG301      CG331       HGA3
    7     8     9    51	 9 ;      CG301      CG321      CG321       HGA2
    7     8     9    50	 9 ;      CG301      CG321      CG321       HGA2
    7     8     9    10	 9 ;      CG301      CG321      CG321     CG2DC1
   48     8     9    51	 9 ;       HGA2      CG321      CG321       HGA2
   48     8     9    50	 9 ;       HGA2      CG321      CG321       HGA2
   48     8     9    10	 9 ;       HGA2      CG321      CG321     CG2DC1
   49     8     9    51	 9 ;       HGA2      CG321      CG321       HGA2
   49     8     9    50	 9 ;       HGA2      CG321      CG321       HGA2
   49     8     9    10	 9 ;       HGA2      CG321      CG321     CG2DC1
    8     9    10    11	 9 ;      CG321      CG321     CG2DC1     CG2DC1
    8     9    10    15	 9 ;      CG321      CG321     CG2DC1     CG2DC2
   51     9    10    11	 9 ;       HGA2      CG321     CG2DC1     CG2DC1
   51     9    10    15	 9 ;       HGA2      CG321     CG2DC1     CG2DC2
   50     9    10    11	 9 ;       HGA2      CG321     CG2DC1     CG2DC1
   50     9    10    15	 9 ;       HGA2      CG321     CG2DC1     CG2DC2
    9    10    11     5	 9 ;      CG321     CG2DC1     CG2DC1     CG2R61
    9    10    11    19	 9 ;      CG321     CG2DC1     CG2DC1      CG321
   15    10    11     5	 9 ;     CG2DC2     CG2DC1     CG2DC1     CG2R61
   15    10    11    19	 9 ;     CG2DC2     CG2DC1     CG2DC1      CG321
    9    10    15    25	 9 ;      CG321     CG2DC1     CG2DC2     CG2R61
    9    10    15    16	 9 ;      CG321     CG2DC1     CG2DC2     CG2DC2
   11    10    15    25	 9 ;     CG2DC1     CG2DC1     CG2DC2     CG2R61
   11    10    15    16	 9 ;     CG2DC1     CG2DC1     CG2DC2     CG2DC2
    5    11    19    18	 9 ;     CG2R61     CG2DC1      CG321     NG3C51
    5    11    19    61	 9 ;     CG2R61     CG2DC1      CG321       HGA2
    5    11    19    62	 9 ;     CG2R61     CG2DC1      CG321       HGA2
   10    11    19    18	 9 ;     CG2DC1     CG2DC1      CG321     NG3C51
   10    11    19    61	 9 ;     CG2DC1     CG2DC1      CG321       HGA2
   10    11    19    62	 9 ;     CG2DC1     CG2DC1      CG321       HGA2
   10    15    25    35	 9 ;     CG2DC1     CG2DC2     CG2R61     CG2R61
   10    15    25    31	 9 ;     CG2DC1     CG2DC2     CG2R61     CG2R61
   16    15    25    35	 9 ;     CG2DC2     CG2DC2     CG2R61     CG2R61
   16    15    25    31	 9 ;     CG2DC2     CG2DC2     CG2R61     CG2R61
   10    15    16    17	 9 ;     CG2DC1     CG2DC2     CG2DC2     CG3RC1
   10    15    16    24	 9 ;     CG2DC1     CG2DC2     CG2DC2     CG2R61
   25    15    16    17	 9 ;     CG2R61     CG2DC2     CG2DC2     CG3RC1
   25    15    16    24	 9 ;     CG2R61     CG2DC2     CG2DC2     CG2R61
   15    16    17    18	 9 ;     CG2DC2     CG2DC2     CG3RC1     NG3C51
   15    16    17    20	 9 ;     CG2DC2     CG2DC2     CG3RC1     CG3C51
   15    16    17    86	 9 ;     CG2DC2     CG2DC2     CG3RC1       HGA1
   24    16    17    18	 9 ;     CG2R61     CG2DC2     CG3RC1     NG3C51
   24    16    17    20	 9 ;     CG2R61     CG2DC2     CG3RC1     CG3C51
   24    16    17    86	 9 ;     CG2R61     CG2DC2     CG3RC1       HGA1
   15    16    24    30	 9 ;     CG2DC2     CG2DC2     CG2R61     CG2R61
   15    16    24    26	 9 ;     CG2DC2     CG2DC2     CG2R61     CG2R61
   17    16    24    30	 9 ;     CG3RC1     CG2DC2     CG2R61     CG2R61
   17    16    24    26	 9 ;     CG3RC1     CG2DC2     CG2R61     CG2R61
   16    17    18    19	 9 ;     CG2DC2     CG3RC1     NG3C51      CG321
   16    17    18    22	 9 ;     CG2DC2     CG3RC1     NG3C51     NG3C51
   20    17    18    19	 9 ;     CG3C51     CG3RC1     NG3C51      CG321
   20    17    18    22	 9 ;     CG3C51     CG3RC1     NG3C51     NG3C51
   86    17    18    19	 9 ;       HGA1     CG3RC1     NG3C51      CG321
   86    17    18    22	 9 ;       HGA1     CG3RC1     NG3C51     NG3C51
   16    17    20    21	 9 ;     CG2DC2     CG3RC1     CG3C51     NG3C51
   16    17    20    23	 9 ;     CG2DC2     CG3RC1     CG3C51     CG2R61
   16    17    20    87	 9 ;     CG2DC2     CG3RC1     CG3C51       HGA1
   18    17    20    21	 9 ;     NG3C51     CG3RC1     CG3C51     NG3C51
   18    17    20    23	 9 ;     NG3C51     CG3RC1     CG3C51     CG2R61
   18    17    20    87	 9 ;     NG3C51     CG3RC1     CG3C51       HGA1
   86    17    20    21	 9 ;       HGA1     CG3RC1     CG3C51     NG3C51
   86    17    20    23	 9 ;       HGA1     CG3RC1     CG3C51     CG2R61
   86    17    20    87	 9 ;       HGA1     CG3RC1     CG3C51       HGA1
   17    18    19    11	 9 ;     CG3RC1     NG3C51      CG321     CG2DC1
   17    18    19    61	 9 ;     CG3RC1     NG3C51      CG321       HGA2
   17    18    19    62	 9 ;     CG3RC1     NG3C51      CG321       HGA2
   22    18    19    11	 9 ;     NG3C51     NG3C51      CG321     CG2DC1
   22    18    19    61	 9 ;     NG3C51     NG3C51      CG321       HGA2
   22    18    19    62	 9 ;     NG3C51     NG3C51      CG321       HGA2
   17    18    22    21	 9 ;     CG3RC1     NG3C51     NG3C51     NG3C51
   17    18    22    89	 9 ;     CG3RC1     NG3C51     NG3C51       HGP1
   19    18    22    21	 9 ;      CG321     NG3C51     NG3C51     NG3C51
   19    18    22    89	 9 ;      CG321     NG3C51     NG3C51       HGP1
   17    20    21    22	 9 ;     CG3RC1     CG3C51     NG3C51     NG3C51
   17    20    21    88	 9 ;     CG3RC1     CG3C51     NG3C51       HGP1
   23    20    21    22	 9 ;     CG2R61     CG3C51     NG3C51     NG3C51
   23    20    21    88	 9 ;     CG2R61     CG3C51     NG3C51       HGP1
   87    20    21    22	 9 ;       HGA1     CG3C51     NG3C51     NG3C51
   87    20    21    88	 9 ;       HGA1     CG3C51     NG3C51       HGP1
   17    20    23    40	 9 ;     CG3RC1     CG3C51     CG2R61     CG2R61
   17    20    23    36	 9 ;     CG3RC1     CG3C51     CG2R61     CG2R61
   21    20    23    40	 9 ;     NG3C51     CG3C51     CG2R61     CG2R61
   21    20    23    36	 9 ;     NG3C51     CG3C51     CG2R61     CG2R61
   87    20    23    40	 9 ;       HGA1     CG3C51     CG2R61     CG2R61
   87    20    23    36	 9 ;       HGA1     CG3C51     CG2R61     CG2R61
   20    21    22    18	 9 ;     CG3C51     NG3C51     NG3C51     NG3C51
   20    21    22    89	 9 ;     CG3C51     NG3C51     NG3C51       HGP1
   88    21    22    18	 9 ;       HGP1     NG3C51     NG3C51     NG3C51
   88    21    22    89	 9 ;       HGP1     NG3C51     NG3C51       HGP1
   20    23    40    39	 9 ;     CG3C51     CG2R61     CG2R61     CG2R61
   20    23    40    76	 9 ;     CG3C51     CG2R61     CG2R61      HGR61
   36    23    40    39	 9 ;     CG2R61     CG2R61     CG2R61     CG2R61
   36    23    40    76	 9 ;     CG2R61     CG2R61     CG2R61      HGR61
   20    23    36    73	 9 ;     CG3C51     CG2R61     CG2R61      HGR61
   20    23    36    37	 9 ;     CG3C51     CG2R61     CG2R61     CG2R61
   40    23    36    73	 9 ;     CG2R61     CG2R61     CG2R61      HGR61
   40    23    36    37	 9 ;     CG2R61     CG2R61     CG2R61     CG2R61
   16    24    30    29	 9 ;     CG2DC2     CG2R61     CG2R61     CG2R61
   16    24    30    67	 9 ;     CG2DC2     CG2R61     CG2R61      HGR61
   26    24    30    29	 9 ;     CG2R61     CG2R61     CG2R61     CG2R61
   26    24    30    67	 9 ;     CG2R61     CG2R61     CG2R61      HGR61
   16    24    26    63	 9 ;     CG2DC2     CG2R61     CG2R61      HGR61
   16    24    26    27	 9 ;     CG2DC2     CG2R61     CG2R61     CG2R61
   30    24    26    63	 9 ;     CG2R61     CG2R61     CG2R61      HGR61
   30    24    26    27	 9 ;     CG2R61     CG2R61     CG2R61     CG2R61
   15    25    35    34	 9 ;     CG2DC2     CG2R61     CG2R61     CG2R61
   15    25    35    72	 9 ;     CG2DC2     CG2R61     CG2R61      HGR61
   31    25    35    34	 9 ;     CG2R61     CG2R61     CG2R61     CG2R61
   31    25    35    72	 9 ;     CG2R61     CG2R61     CG2R61      HGR61
   15    25    31    32	 9 ;     CG2DC2     CG2R61     CG2R61     CG2R61
   15    25    31    68	 9 ;     CG2DC2     CG2R61     CG2R61      HGR61
   35    25    31    32	 9 ;     CG2R61     CG2R61     CG2R61     CG2R61
   35    25    31    68	 9 ;     CG2R61     CG2R61     CG2R61      HGR61
   24    26    27    28	 9 ;     CG2R61     CG2R61     CG2R61     CG2R61
   24    26    27    64	 9 ;     CG2R61     CG2R61     CG2R61      HGR61
   63    26    27    28	 9 ;      HGR61     CG2R61     CG2R61     CG2R61
   63    26    27    64	 9 ;      HGR61     CG2R61     CG2R61      HGR61
   26    27    28    29	 9 ;     CG2R61     CG2R61     CG2R61     CG2R61
   26    27    28    65	 9 ;     CG2R61     CG2R61     CG2R61      HGR61
   64    27    28    29	 9 ;      HGR61     CG2R61     CG2R61     CG2R61
   64    27    28    65	 9 ;      HGR61     CG2R61     CG2R61      HGR61
   27    28    29    30	 9 ;     CG2R61     CG2R61     CG2R61     CG2R61
   27    28    29    66	 9 ;     CG2R61     CG2R61     CG2R61      HGR61
   65    28    29    30	 9 ;      HGR61     CG2R61     CG2R61     CG2R61
   65    28    29    66	 9 ;      HGR61     CG2R61     CG2R61      HGR61
   28    29    30    24	 9 ;     CG2R61     CG2R61     CG2R61     CG2R61
   28    29    30    67	 9 ;     CG2R61     CG2R61     CG2R61      HGR61
   66    29    30    24	 9 ;      HGR61     CG2R61     CG2R61     CG2R61
   66    29    30    67	 9 ;      HGR61     CG2R61     CG2R61      HGR61
   25    31    32    33	 9 ;     CG2R61     CG2R61     CG2R61     CG2R61
   25    31    32    69	 9 ;     CG2R61     CG2R61     CG2R61      HGR61
   68    31    32    33	 9 ;      HGR61     CG2R61     CG2R61     CG2R61
   68    31    32    69	 9 ;      HGR61     CG2R61     CG2R61      HGR61
   31    32    33    70	 9 ;     CG2R61     CG2R61     CG2R61      HGR61
   31    32    33    34	 9 ;     CG2R61     CG2R61     CG2R61     CG2R61
   69    32    33    70	 9 ;      HGR61     CG2R61     CG2R61      HGR61
   69    32    33    34	 9 ;      HGR61     CG2R61     CG2R61     CG2R61
   32    33    34    71	 9 ;     CG2R61     CG2R61     CG2R61      HGR61
   32    33    34    35	 9 ;     CG2R61     CG2R61     CG2R61     CG2R61
   70    33    34    71	 9 ;      HGR61     CG2R61     CG2R61      HGR61
   70    33    34    35	 9 ;      HGR61     CG2R61     CG2R61     CG2R61
   33    34    35    25	 9 ;     CG2R61     CG2R61     CG2R61     CG2R61
   33    34    35    72	 9 ;     CG2R61     CG2R61     CG2R61      HGR61
   71    34    35    25	 9 ;      HGR61     CG2R61     CG2R61     CG2R61
   71    34    35    72	 9 ;      HGR61     CG2R61     CG2R61      HGR61
   23    36    37    74	 9 ;     CG2R61     CG2R61     CG2R61      HGR61
   23    36    37    38	 9 ;     CG2R61     CG2R61     CG2R61     CG2R61
   73    36    37    74	 9 ;      HGR61     CG2R61     CG2R61      HGR61
   73    36    37    38	 9 ;      HGR61     CG2R61     CG2R61     CG2R61
   36    37    38    39	 9 ;     CG2R61     CG2R61     CG2R61     CG2R61
   36    37    38    41	 9 ;     CG2R61     CG2R61     CG2R61      CG301
   74    37    38    39	 9 ;      HGR61     CG2R61     CG2R61     CG2R61
   74    37    38    41	 9 ;      HGR61     CG2R61     CG2R61      CG301
   37    38    39    40	 9 ;     CG2R61     CG2R61     CG2R61     CG2R61
   37    38    39    75	 9 ;     CG2R61     CG2R61     CG2R61      HGR61
   41    38    39    40	 9 ;      CG301     CG2R61     CG2R61     CG2R61
   41    38    39    75	 9 ;      CG301     CG2R61     CG2R61      HGR61
   37    38    41    42	 9 ;     CG2R61     CG2R61      CG301      CG331
   37    38    41    43	 9 ;     CG2R61     CG2R61      CG301      CG331
   37    38    41    44	 9 ;     CG2R61     CG2R61      CG301      CG331
   39    38    41    42	 9 ;     CG2R61     CG2R61      CG301      CG331
   39    38    41    43	 9 ;     CG2R61     CG2R61      CG301      CG331
   39    38    41    44	 9 ;     CG2R61     CG2R61      CG301      CG331
   38    39    40    23	 9 ;     CG2R61     CG2R61     CG2R61     CG2R61
   38    39    40    76	 9 ;     CG2R61     CG2R61     CG2R61      HGR61
   75    39    40    23	 9 ;      HGR61     CG2R61     CG2R61     CG2R61
   75    39    40    76	 9 ;      HGR61     CG2R61     CG2R61      HGR61
   38    41    42    79	 9 ;     CG2R61      CG301      CG331       HGA3
   38    41    42    78	 9 ;     CG2R61      CG301      CG331       HGA3
   38    41    42    77	 9 ;     CG2R61      CG301      CG331       HGA3
   43    41    42    79	 9 ;      CG331      CG301      CG331       HGA3
   43    41    42    78	 9 ;      CG331      CG301      CG331       HGA3
   43    41    42    77	 9 ;      CG331      CG301      CG331       HGA3
   44    41    42    79	 9 ;      CG331      CG301      CG331       HGA3
   44    41    42    78	 9 ;      CG331      CG301      CG331       HGA3
   44    41    42    77	 9 ;      CG331      CG301      CG331       HGA3
   38    41    43    81	 9 ;     CG2R61      CG301      CG331       HGA3
   38    41    43    82	 9 ;     CG2R61      CG301      CG331       HGA3
   38    41    43    80	 9 ;     CG2R61      CG301      CG331       HGA3
   42    41    43    81	 9 ;      CG331      CG301      CG331       HGA3
   42    41    43    82	 9 ;      CG331      CG301      CG331       HGA3
   42    41    43    80	 9 ;      CG331      CG301      CG331       HGA3
   44    41    43    81	 9 ;      CG331      CG301      CG331       HGA3
   44    41    43    82	 9 ;      CG331      CG301      CG331       HGA3
   44    41    43    80	 9 ;      CG331      CG301      CG331       HGA3
   38    41    44    85	 9 ;     CG2R61      CG301      CG331       HGA3
   38    41    44    84	 9 ;     CG2R61      CG301      CG331       HGA3
   38    41    44    83	 9 ;     CG2R61      CG301      CG331       HGA3
   42    41    44    85	 9 ;      CG331      CG301      CG331       HGA3
   42    41    44    84	 9 ;      CG331      CG301      CG331       HGA3
   42    41    44    83	 9 ;      CG331      CG301      CG331       HGA3
   43    41    44    85	 9 ;      CG331      CG301      CG331       HGA3
   43    41    44    84	 9 ;      CG331      CG301      CG331       HGA3
   43    41    44    83	 9 ;      CG331      CG301      CG331       HGA3

