; Created by cgenff_charmm2gmx.py

[ moleculetype ]
; Name			   nrexcl
JZ4				 3

[ atoms ]
;	 nr		  type	resnr residue  atom   cgnr	   charge		mass  typeB    chargeB		massB
; residue	 1 JZ4 rtp JZ4 q	qsum
     1       FGA1      1    JZ4     F1      1     -0.207     18.998   ;
     2      OG2D1      1    JZ4     O2      2     -0.514     15.999   ;
     3      OG2D4      1    JZ4     O3      3     -0.515     15.999   ;
     4     NG2R51      1    JZ4     N4      4      0.513     14.007   ;
     5      NG2S0      1    JZ4     N5      5     -0.356     14.007   ;
     6     NG2R50      1    JZ4     N6      6     -0.590     14.007   ;
     7     NG2R62      1    JZ4     N7      7     -0.670     14.007   ;
     8      NG311      1    JZ4     N8      8     -0.501     14.007   ;
     9     NG2R61      1    JZ4     N9      9     -0.416     14.007   ;
    10     CG3C51      1    JZ4    C10     10     -0.174     12.011   ;
    11     CG3C52      1    JZ4    C11     11     -0.184     12.011   ;
    12     CG3C52      1    JZ4    C12     12     -0.184     12.011   ;
    13     CG3C52      1    JZ4    C13     13     -0.181     12.011   ;
    14     CG3C52      1    JZ4    C14     14     -0.181     12.011   ;
    15     CG3C51      1    JZ4    C15     15      0.048     12.011   ;
    16     CG3C52      1    JZ4    C16     16     -0.134     12.011   ;
    17     CG3C52      1    JZ4    C17     17      0.024     12.011   ;
    18     CG3C52      1    JZ4    C18     18     -0.023     12.011   ;
    19     CG2RC0      1    JZ4    C19     19      0.590     12.011   ;
    20      CG2O1      1    JZ4    C20     20      0.536     12.011   ;
    21     CG2RC0      1    JZ4    C21     21     -0.519     12.011   ;
    22      CG311      1    JZ4    C22     22      0.123     12.011   ;
    23     CG2R52      1    JZ4    C23     23      0.171     12.011   ;
    24     CG2R64      1    JZ4    C24     24      0.689     12.011   ;
    25     CG2R63      1    JZ4    C25     25      0.365     12.011   ;
    26      CG331      1    JZ4    C26     26     -0.267     12.011   ;
    27       HGA1      1    JZ4    H27     27      0.090      1.008   ;
    28       HGA2      1    JZ4    H28     28      0.090      1.008   ;
    29       HGA2      1    JZ4    H29     29      0.090      1.008   ;
    30       HGA2      1    JZ4    H30     30      0.090      1.008   ;
    31       HGA2      1    JZ4    H31     31      0.090      1.008   ;
    32       HGA2      1    JZ4    H32     32      0.090      1.008   ;
    33       HGA2      1    JZ4    H33     33      0.090      1.008   ;
    34       HGA2      1    JZ4    H34     34      0.090      1.008   ;
    35       HGA2      1    JZ4    H35     35      0.090      1.008   ;
    36       HGA6      1    JZ4    H36     36      0.098      1.008   ;
    37       HGA2      1    JZ4    H37     37      0.090      1.008   ;
    38       HGA2      1    JZ4    H38     38      0.090      1.008   ;
    39       HGA2      1    JZ4    H39     39      0.090      1.008   ;
    40       HGA2      1    JZ4    H40     40      0.090      1.008   ;
    41       HGA2      1    JZ4    H41     41      0.090      1.008   ;
    42       HGA2      1    JZ4    H42     42      0.090      1.008   ;
    43       HGA1      1    JZ4    H43     43      0.090      1.008   ;
    44      HGR52      1    JZ4    H44     44      0.091      1.008   ;
    45     HGPAM1      1    JZ4    H45     45      0.370      1.008   ;
    46       HGA3      1    JZ4    H46     46      0.090      1.008   ;
    47       HGA3      1    JZ4    H47     47      0.090      1.008   ;
    48       HGA3      1    JZ4    H48     48      0.090      1.008   ;
    49       HGP1      1    JZ4    H49     49      0.288      1.008   ;

[ bonds ]
;	ai	  aj funct			  c0			c1			  c2			c3
    1    15	 1 ;        FGA1     CG3C51
    2    20	 1 ;       OG2D1      CG2O1
    3    25	 1 ;       OG2D4     CG2R63
    4    19	 1 ;      NG2R51     CG2RC0
    4     6	 1 ;      NG2R51     NG2R50
    4    10	 1 ;      NG2R51     CG3C51
    5    17	 1 ;       NG2S0     CG3C52
    5    18	 1 ;       NG2S0     CG3C52
    5    20	 1 ;       NG2S0      CG2O1
    6    23	 1 ;      NG2R50     CG2R52
    7    24	 1 ;      NG2R62     CG2R64
    7    19	 1 ;      NG2R62     CG2RC0
    8    45	 1 ;       NG311     HGPAM1
    8    24	 1 ;       NG311     CG2R64
    8    22	 1 ;       NG311      CG311
    9    49	 1 ;      NG2R61       HGP1
    9    25	 1 ;      NG2R61     CG2R63
    9    24	 1 ;      NG2R61     CG2R64
   10    27	 1 ;      CG3C51       HGA1
   10    11	 1 ;      CG3C51     CG3C52
   10    12	 1 ;      CG3C51     CG3C52
   11    29	 1 ;      CG3C52       HGA2
   11    28	 1 ;      CG3C52       HGA2
   11    13	 1 ;      CG3C52     CG3C52
   12    30	 1 ;      CG3C52       HGA2
   12    31	 1 ;      CG3C52       HGA2
   12    14	 1 ;      CG3C52     CG3C52
   13    14	 1 ;      CG3C52     CG3C52
   13    33	 1 ;      CG3C52       HGA2
   13    32	 1 ;      CG3C52       HGA2
   14    34	 1 ;      CG3C52       HGA2
   14    35	 1 ;      CG3C52       HGA2
   15    36	 1 ;      CG3C51       HGA6
   15    16	 1 ;      CG3C51     CG3C52
   15    17	 1 ;      CG3C51     CG3C52
   16    37	 1 ;      CG3C52       HGA2
   16    38	 1 ;      CG3C52       HGA2
   16    18	 1 ;      CG3C52     CG3C52
   17    40	 1 ;      CG3C52       HGA2
   17    39	 1 ;      CG3C52       HGA2
   18    41	 1 ;      CG3C52       HGA2
   18    42	 1 ;      CG3C52       HGA2
   19    21	 1 ;      CG2RC0     CG2RC0
   20    22	 1 ;       CG2O1      CG311
   21    25	 1 ;      CG2RC0     CG2R63
   21    23	 1 ;      CG2RC0     CG2R52
   22    43	 1 ;       CG311       HGA1
   22    26	 1 ;       CG311      CG331
   23    44	 1 ;      CG2R52      HGR52
   26    48	 1 ;       CG331       HGA3
   26    47	 1 ;       CG331       HGA3
   26    46	 1 ;       CG331       HGA3

[ pairs ]
;	ai	  aj funct			  c0			c1			  c2			c3
    1    37	 1
    1    38	 1
    1    18	 1
    1     5	 1
    1    40	 1
    1    39	 1
    2    17	 1
    2    18	 1
    2     8	 1
    2    43	 1
    2    26	 1
    3    49	 1
    3    24	 1
    3    19	 1
    3    23	 1
    4    44	 1
    4    24	 1
    4    29	 1
    4    28	 1
    4    13	 1
    4    30	 1
    4    31	 1
    4    14	 1
    4    25	 1
    5    36	 1
    5    37	 1
    5    38	 1
    5     8	 1
    5    43	 1
    5    26	 1
    6     7	 1
    6    27	 1
    6    11	 1
    6    12	 1
    6    25	 1
    7    10	 1
    7    45	 1
    7    22	 1
    7    49	 1
    7    25	 1
    7    23	 1
    8    19	 1
    8    49	 1
    8    25	 1
    8    48	 1
    8    47	 1
    8    46	 1
    9    19	 1
    9    45	 1
    9    22	 1
    9    23	 1
   10    21	 1
   10    23	 1
   10    33	 1
   10    32	 1
   10    34	 1
   10    35	 1
   11    19	 1
   11    30	 1
   11    31	 1
   11    34	 1
   11    35	 1
   12    19	 1
   12    29	 1
   12    28	 1
   12    33	 1
   12    32	 1
   13    27	 1
   13    30	 1
   13    31	 1
   14    27	 1
   14    29	 1
   14    28	 1
   15    20	 1
   15    41	 1
   15    42	 1
   16    20	 1
   16    40	 1
   16    39	 1
   17    41	 1
   17    42	 1
   17    22	 1
   17    37	 1
   17    38	 1
   18    40	 1
   18    39	 1
   18    22	 1
   18    36	 1
   19    27	 1
   19    44	 1
   20    40	 1
   20    39	 1
   20    41	 1
   20    42	 1
   20    45	 1
   20    24	 1
   20    48	 1
   20    47	 1
   20    46	 1
   21    24	 1
   21    49	 1
   24    43	 1
   24    26	 1
   25    44	 1
   26    45	 1
   27    29	 1
   27    28	 1
   27    30	 1
   27    31	 1
   28    33	 1
   28    32	 1
   29    33	 1
   29    32	 1
   30    34	 1
   30    35	 1
   31    34	 1
   31    35	 1
   32    34	 1
   32    35	 1
   33    34	 1
   33    35	 1
   36    37	 1
   36    38	 1
   36    40	 1
   36    39	 1
   37    41	 1
   37    42	 1
   38    41	 1
   38    42	 1
   43    45	 1
   43    48	 1
   43    47	 1
   43    46	 1

[ angles ]
;	ai	  aj	ak funct			c0			  c1			c2			  c3
   19     4     6	5 ;     CG2RC0     NG2R51     NG2R50
   19     4    10	5 ;     CG2RC0     NG2R51     CG3C51
    6     4    10	5 ;     NG2R50     NG2R51     CG3C51
   17     5    18	5 ;     CG3C52      NG2S0     CG3C52
   17     5    20	5 ;     CG3C52      NG2S0      CG2O1
   18     5    20	5 ;     CG3C52      NG2S0      CG2O1
    4     6    23	5 ;     NG2R51     NG2R50     CG2R52
   24     7    19	5 ;     CG2R64     NG2R62     CG2RC0
   45     8    24	5 ;     HGPAM1      NG311     CG2R64
   45     8    22	5 ;     HGPAM1      NG311      CG311
   24     8    22	5 ;     CG2R64      NG311      CG311
   49     9    25	5 ;       HGP1     NG2R61     CG2R63
   49     9    24	5 ;       HGP1     NG2R61     CG2R64
   25     9    24	5 ;     CG2R63     NG2R61     CG2R64
    4    10    27	5 ;     NG2R51     CG3C51       HGA1
    4    10    11	5 ;     NG2R51     CG3C51     CG3C52
    4    10    12	5 ;     NG2R51     CG3C51     CG3C52
   27    10    11	5 ;       HGA1     CG3C51     CG3C52
   27    10    12	5 ;       HGA1     CG3C51     CG3C52
   11    10    12	5 ;     CG3C52     CG3C51     CG3C52
   10    11    29	5 ;     CG3C51     CG3C52       HGA2
   10    11    28	5 ;     CG3C51     CG3C52       HGA2
   10    11    13	5 ;     CG3C51     CG3C52     CG3C52
   29    11    28	5 ;       HGA2     CG3C52       HGA2
   29    11    13	5 ;       HGA2     CG3C52     CG3C52
   28    11    13	5 ;       HGA2     CG3C52     CG3C52
   10    12    30	5 ;     CG3C51     CG3C52       HGA2
   10    12    31	5 ;     CG3C51     CG3C52       HGA2
   10    12    14	5 ;     CG3C51     CG3C52     CG3C52
   30    12    31	5 ;       HGA2     CG3C52       HGA2
   30    12    14	5 ;       HGA2     CG3C52     CG3C52
   31    12    14	5 ;       HGA2     CG3C52     CG3C52
   11    13    14	5 ;     CG3C52     CG3C52     CG3C52
   11    13    33	5 ;     CG3C52     CG3C52       HGA2
   11    13    32	5 ;     CG3C52     CG3C52       HGA2
   14    13    33	5 ;     CG3C52     CG3C52       HGA2
   14    13    32	5 ;     CG3C52     CG3C52       HGA2
   33    13    32	5 ;       HGA2     CG3C52       HGA2
   12    14    13	5 ;     CG3C52     CG3C52     CG3C52
   12    14    34	5 ;     CG3C52     CG3C52       HGA2
   12    14    35	5 ;     CG3C52     CG3C52       HGA2
   13    14    34	5 ;     CG3C52     CG3C52       HGA2
   13    14    35	5 ;     CG3C52     CG3C52       HGA2
   34    14    35	5 ;       HGA2     CG3C52       HGA2
    1    15    36	5 ;       FGA1     CG3C51       HGA6
    1    15    16	5 ;       FGA1     CG3C51     CG3C52
    1    15    17	5 ;       FGA1     CG3C51     CG3C52
   36    15    16	5 ;       HGA6     CG3C51     CG3C52
   36    15    17	5 ;       HGA6     CG3C51     CG3C52
   16    15    17	5 ;     CG3C52     CG3C51     CG3C52
   15    16    37	5 ;     CG3C51     CG3C52       HGA2
   15    16    38	5 ;     CG3C51     CG3C52       HGA2
   15    16    18	5 ;     CG3C51     CG3C52     CG3C52
   37    16    38	5 ;       HGA2     CG3C52       HGA2
   37    16    18	5 ;       HGA2     CG3C52     CG3C52
   38    16    18	5 ;       HGA2     CG3C52     CG3C52
    5    17    15	5 ;      NG2S0     CG3C52     CG3C51
    5    17    40	5 ;      NG2S0     CG3C52       HGA2
    5    17    39	5 ;      NG2S0     CG3C52       HGA2
   15    17    40	5 ;     CG3C51     CG3C52       HGA2
   15    17    39	5 ;     CG3C51     CG3C52       HGA2
   40    17    39	5 ;       HGA2     CG3C52       HGA2
    5    18    16	5 ;      NG2S0     CG3C52     CG3C52
    5    18    41	5 ;      NG2S0     CG3C52       HGA2
    5    18    42	5 ;      NG2S0     CG3C52       HGA2
   16    18    41	5 ;     CG3C52     CG3C52       HGA2
   16    18    42	5 ;     CG3C52     CG3C52       HGA2
   41    18    42	5 ;       HGA2     CG3C52       HGA2
    4    19     7	5 ;     NG2R51     CG2RC0     NG2R62
    4    19    21	5 ;     NG2R51     CG2RC0     CG2RC0
    7    19    21	5 ;     NG2R62     CG2RC0     CG2RC0
    2    20     5	5 ;      OG2D1      CG2O1      NG2S0
    2    20    22	5 ;      OG2D1      CG2O1      CG311
    5    20    22	5 ;      NG2S0      CG2O1      CG311
   19    21    25	5 ;     CG2RC0     CG2RC0     CG2R63
   19    21    23	5 ;     CG2RC0     CG2RC0     CG2R52
   25    21    23	5 ;     CG2R63     CG2RC0     CG2R52
    8    22    20	5 ;      NG311      CG311      CG2O1
    8    22    43	5 ;      NG311      CG311       HGA1
    8    22    26	5 ;      NG311      CG311      CG331
   20    22    43	5 ;      CG2O1      CG311       HGA1
   20    22    26	5 ;      CG2O1      CG311      CG331
   43    22    26	5 ;       HGA1      CG311      CG331
    6    23    21	5 ;     NG2R50     CG2R52     CG2RC0
    6    23    44	5 ;     NG2R50     CG2R52      HGR52
   21    23    44	5 ;     CG2RC0     CG2R52      HGR52
    7    24     8	5 ;     NG2R62     CG2R64      NG311
    7    24     9	5 ;     NG2R62     CG2R64     NG2R61
    8    24     9	5 ;      NG311     CG2R64     NG2R61
    3    25     9	5 ;      OG2D4     CG2R63     NG2R61
    3    25    21	5 ;      OG2D4     CG2R63     CG2RC0
    9    25    21	5 ;     NG2R61     CG2R63     CG2RC0
   22    26    48	5 ;      CG311      CG331       HGA3
   22    26    47	5 ;      CG311      CG331       HGA3
   22    26    46	5 ;      CG311      CG331       HGA3
   48    26    47	5 ;       HGA3      CG331       HGA3
   48    26    46	5 ;       HGA3      CG331       HGA3
   47    26    46	5 ;       HGA3      CG331       HGA3

[ dihedrals ]
;	ai	  aj	ak	  al funct			  c0			c1			  c2			c3			  c4			c5
    6     4    19     7	 9 ;     NG2R50     NG2R51     CG2RC0     NG2R62
    6     4    19    21	 9 ;     NG2R50     NG2R51     CG2RC0     CG2RC0
   10     4    19     7	 9 ;     CG3C51     NG2R51     CG2RC0     NG2R62
   10     4    19    21	 9 ;     CG3C51     NG2R51     CG2RC0     CG2RC0
   19     4     6    23	 9 ;     CG2RC0     NG2R51     NG2R50     CG2R52
   10     4     6    23	 9 ;     CG3C51     NG2R51     NG2R50     CG2R52
   19     4    10    27	 9 ;     CG2RC0     NG2R51     CG3C51       HGA1
   19     4    10    11	 9 ;     CG2RC0     NG2R51     CG3C51     CG3C52
   19     4    10    12	 9 ;     CG2RC0     NG2R51     CG3C51     CG3C52
    6     4    10    27	 9 ;     NG2R50     NG2R51     CG3C51       HGA1
    6     4    10    11	 9 ;     NG2R50     NG2R51     CG3C51     CG3C52
    6     4    10    12	 9 ;     NG2R50     NG2R51     CG3C51     CG3C52
   18     5    17    15	 9 ;     CG3C52      NG2S0     CG3C52     CG3C51
   18     5    17    40	 9 ;     CG3C52      NG2S0     CG3C52       HGA2
   18     5    17    39	 9 ;     CG3C52      NG2S0     CG3C52       HGA2
   20     5    17    15	 9 ;      CG2O1      NG2S0     CG3C52     CG3C51
   20     5    17    40	 9 ;      CG2O1      NG2S0     CG3C52       HGA2
   20     5    17    39	 9 ;      CG2O1      NG2S0     CG3C52       HGA2
   17     5    18    16	 9 ;     CG3C52      NG2S0     CG3C52     CG3C52
   17     5    18    41	 9 ;     CG3C52      NG2S0     CG3C52       HGA2
   17     5    18    42	 9 ;     CG3C52      NG2S0     CG3C52       HGA2
   20     5    18    16	 9 ;      CG2O1      NG2S0     CG3C52     CG3C52
   20     5    18    41	 9 ;      CG2O1      NG2S0     CG3C52       HGA2
   20     5    18    42	 9 ;      CG2O1      NG2S0     CG3C52       HGA2
   17     5    20     2	 9 ;     CG3C52      NG2S0      CG2O1      OG2D1
   17     5    20    22	 9 ;     CG3C52      NG2S0      CG2O1      CG311
   18     5    20     2	 9 ;     CG3C52      NG2S0      CG2O1      OG2D1
   18     5    20    22	 9 ;     CG3C52      NG2S0      CG2O1      CG311
    4     6    23    21	 9 ;     NG2R51     NG2R50     CG2R52     CG2RC0
    4     6    23    44	 9 ;     NG2R51     NG2R50     CG2R52      HGR52
   19     7    24     8	 9 ;     CG2RC0     NG2R62     CG2R64      NG311
   19     7    24     9	 9 ;     CG2RC0     NG2R62     CG2R64     NG2R61
   24     7    19     4	 9 ;     CG2R64     NG2R62     CG2RC0     NG2R51
   24     7    19    21	 9 ;     CG2R64     NG2R62     CG2RC0     CG2RC0
   45     8    24     7	 9 ;     HGPAM1      NG311     CG2R64     NG2R62
   45     8    24     9	 9 ;     HGPAM1      NG311     CG2R64     NG2R61
   22     8    24     7	 9 ;      CG311      NG311     CG2R64     NG2R62
   22     8    24     9	 9 ;      CG311      NG311     CG2R64     NG2R61
   45     8    22    20	 9 ;     HGPAM1      NG311      CG311      CG2O1
   45     8    22    43	 9 ;     HGPAM1      NG311      CG311       HGA1
   45     8    22    26	 9 ;     HGPAM1      NG311      CG311      CG331
   24     8    22    20	 9 ;     CG2R64      NG311      CG311      CG2O1
   24     8    22    43	 9 ;     CG2R64      NG311      CG311       HGA1
   24     8    22    26	 9 ;     CG2R64      NG311      CG311      CG331
   49     9    25     3	 9 ;       HGP1     NG2R61     CG2R63      OG2D4
   49     9    25    21	 9 ;       HGP1     NG2R61     CG2R63     CG2RC0
   24     9    25     3	 9 ;     CG2R64     NG2R61     CG2R63      OG2D4
   24     9    25    21	 9 ;     CG2R64     NG2R61     CG2R63     CG2RC0
   49     9    24     7	 9 ;       HGP1     NG2R61     CG2R64     NG2R62
   49     9    24     8	 9 ;       HGP1     NG2R61     CG2R64      NG311
   25     9    24     7	 9 ;     CG2R63     NG2R61     CG2R64     NG2R62
   25     9    24     8	 9 ;     CG2R63     NG2R61     CG2R64      NG311
    4    10    11    29	 9 ;     NG2R51     CG3C51     CG3C52       HGA2
    4    10    11    28	 9 ;     NG2R51     CG3C51     CG3C52       HGA2
    4    10    11    13	 9 ;     NG2R51     CG3C51     CG3C52     CG3C52
   27    10    11    29	 9 ;       HGA1     CG3C51     CG3C52       HGA2
   27    10    11    28	 9 ;       HGA1     CG3C51     CG3C52       HGA2
   27    10    11    13	 9 ;       HGA1     CG3C51     CG3C52     CG3C52
   12    10    11    29	 9 ;     CG3C52     CG3C51     CG3C52       HGA2
   12    10    11    28	 9 ;     CG3C52     CG3C51     CG3C52       HGA2
   12    10    11    13	 9 ;     CG3C52     CG3C51     CG3C52     CG3C52
    4    10    12    30	 9 ;     NG2R51     CG3C51     CG3C52       HGA2
    4    10    12    31	 9 ;     NG2R51     CG3C51     CG3C52       HGA2
    4    10    12    14	 9 ;     NG2R51     CG3C51     CG3C52     CG3C52
   27    10    12    30	 9 ;       HGA1     CG3C51     CG3C52       HGA2
   27    10    12    31	 9 ;       HGA1     CG3C51     CG3C52       HGA2
   27    10    12    14	 9 ;       HGA1     CG3C51     CG3C52     CG3C52
   11    10    12    30	 9 ;     CG3C52     CG3C51     CG3C52       HGA2
   11    10    12    31	 9 ;     CG3C52     CG3C51     CG3C52       HGA2
   11    10    12    14	 9 ;     CG3C52     CG3C51     CG3C52     CG3C52
   10    11    13    14	 9 ;     CG3C51     CG3C52     CG3C52     CG3C52
   10    11    13    33	 9 ;     CG3C51     CG3C52     CG3C52       HGA2
   10    11    13    32	 9 ;     CG3C51     CG3C52     CG3C52       HGA2
   29    11    13    14	 9 ;       HGA2     CG3C52     CG3C52     CG3C52
   29    11    13    33	 9 ;       HGA2     CG3C52     CG3C52       HGA2
   29    11    13    32	 9 ;       HGA2     CG3C52     CG3C52       HGA2
   28    11    13    14	 9 ;       HGA2     CG3C52     CG3C52     CG3C52
   28    11    13    33	 9 ;       HGA2     CG3C52     CG3C52       HGA2
   28    11    13    32	 9 ;       HGA2     CG3C52     CG3C52       HGA2
   10    12    14    13	 9 ;     CG3C51     CG3C52     CG3C52     CG3C52
   10    12    14    34	 9 ;     CG3C51     CG3C52     CG3C52       HGA2
   10    12    14    35	 9 ;     CG3C51     CG3C52     CG3C52       HGA2
   30    12    14    13	 9 ;       HGA2     CG3C52     CG3C52     CG3C52
   30    12    14    34	 9 ;       HGA2     CG3C52     CG3C52       HGA2
   30    12    14    35	 9 ;       HGA2     CG3C52     CG3C52       HGA2
   31    12    14    13	 9 ;       HGA2     CG3C52     CG3C52     CG3C52
   31    12    14    34	 9 ;       HGA2     CG3C52     CG3C52       HGA2
   31    12    14    35	 9 ;       HGA2     CG3C52     CG3C52       HGA2
   11    13    14    12	 9 ;     CG3C52     CG3C52     CG3C52     CG3C52
   11    13    14    34	 9 ;     CG3C52     CG3C52     CG3C52       HGA2
   11    13    14    35	 9 ;     CG3C52     CG3C52     CG3C52       HGA2
   33    13    14    12	 9 ;       HGA2     CG3C52     CG3C52     CG3C52
   33    13    14    34	 9 ;       HGA2     CG3C52     CG3C52       HGA2
   33    13    14    35	 9 ;       HGA2     CG3C52     CG3C52       HGA2
   32    13    14    12	 9 ;       HGA2     CG3C52     CG3C52     CG3C52
   32    13    14    34	 9 ;       HGA2     CG3C52     CG3C52       HGA2
   32    13    14    35	 9 ;       HGA2     CG3C52     CG3C52       HGA2
    1    15    16    37	 9 ;       FGA1     CG3C51     CG3C52       HGA2
    1    15    16    38	 9 ;       FGA1     CG3C51     CG3C52       HGA2
    1    15    16    18	 9 ;       FGA1     CG3C51     CG3C52     CG3C52
   36    15    16    37	 9 ;       HGA6     CG3C51     CG3C52       HGA2
   36    15    16    38	 9 ;       HGA6     CG3C51     CG3C52       HGA2
   36    15    16    18	 9 ;       HGA6     CG3C51     CG3C52     CG3C52
   17    15    16    37	 9 ;     CG3C52     CG3C51     CG3C52       HGA2
   17    15    16    38	 9 ;     CG3C52     CG3C51     CG3C52       HGA2
   17    15    16    18	 9 ;     CG3C52     CG3C51     CG3C52     CG3C52
    1    15    17     5	 9 ;       FGA1     CG3C51     CG3C52      NG2S0
    1    15    17    40	 9 ;       FGA1     CG3C51     CG3C52       HGA2
    1    15    17    39	 9 ;       FGA1     CG3C51     CG3C52       HGA2
   36    15    17     5	 9 ;       HGA6     CG3C51     CG3C52      NG2S0
   36    15    17    40	 9 ;       HGA6     CG3C51     CG3C52       HGA2
   36    15    17    39	 9 ;       HGA6     CG3C51     CG3C52       HGA2
   16    15    17     5	 9 ;     CG3C52     CG3C51     CG3C52      NG2S0
   16    15    17    40	 9 ;     CG3C52     CG3C51     CG3C52       HGA2
   16    15    17    39	 9 ;     CG3C52     CG3C51     CG3C52       HGA2
   15    16    18     5	 9 ;     CG3C51     CG3C52     CG3C52      NG2S0
   15    16    18    41	 9 ;     CG3C51     CG3C52     CG3C52       HGA2
   15    16    18    42	 9 ;     CG3C51     CG3C52     CG3C52       HGA2
   37    16    18     5	 9 ;       HGA2     CG3C52     CG3C52      NG2S0
   37    16    18    41	 9 ;       HGA2     CG3C52     CG3C52       HGA2
   37    16    18    42	 9 ;       HGA2     CG3C52     CG3C52       HGA2
   38    16    18     5	 9 ;       HGA2     CG3C52     CG3C52      NG2S0
   38    16    18    41	 9 ;       HGA2     CG3C52     CG3C52       HGA2
   38    16    18    42	 9 ;       HGA2     CG3C52     CG3C52       HGA2
    4    19    21    25	 9 ;     NG2R51     CG2RC0     CG2RC0     CG2R63
    4    19    21    23	 9 ;     NG2R51     CG2RC0     CG2RC0     CG2R52
    7    19    21    25	 9 ;     NG2R62     CG2RC0     CG2RC0     CG2R63
    7    19    21    23	 9 ;     NG2R62     CG2RC0     CG2RC0     CG2R52
    2    20    22     8	 9 ;      OG2D1      CG2O1      CG311      NG311
    2    20    22    43	 9 ;      OG2D1      CG2O1      CG311       HGA1
    2    20    22    26	 9 ;      OG2D1      CG2O1      CG311      CG331
    5    20    22     8	 9 ;      NG2S0      CG2O1      CG311      NG311
    5    20    22    43	 9 ;      NG2S0      CG2O1      CG311       HGA1
    5    20    22    26	 9 ;      NG2S0      CG2O1      CG311      CG331
   19    21    25     3	 9 ;     CG2RC0     CG2RC0     CG2R63      OG2D4
   19    21    25     9	 9 ;     CG2RC0     CG2RC0     CG2R63     NG2R61
   23    21    25     3	 9 ;     CG2R52     CG2RC0     CG2R63      OG2D4
   23    21    25     9	 9 ;     CG2R52     CG2RC0     CG2R63     NG2R61
   19    21    23     6	 9 ;     CG2RC0     CG2RC0     CG2R52     NG2R50
   19    21    23    44	 9 ;     CG2RC0     CG2RC0     CG2R52      HGR52
   25    21    23     6	 9 ;     CG2R63     CG2RC0     CG2R52     NG2R50
   25    21    23    44	 9 ;     CG2R63     CG2RC0     CG2R52      HGR52
    8    22    26    48	 9 ;      NG311      CG311      CG331       HGA3
    8    22    26    47	 9 ;      NG311      CG311      CG331       HGA3
    8    22    26    46	 9 ;      NG311      CG311      CG331       HGA3
   20    22    26    48	 9 ;      CG2O1      CG311      CG331       HGA3
   20    22    26    47	 9 ;      CG2O1      CG311      CG331       HGA3
   20    22    26    46	 9 ;      CG2O1      CG311      CG331       HGA3
   43    22    26    48	 9 ;       HGA1      CG311      CG331       HGA3
   43    22    26    47	 9 ;       HGA1      CG311      CG331       HGA3
   43    22    26    46	 9 ;       HGA1      CG311      CG331       HGA3

[ dihedrals ]
;	ai	  aj	ak	  al funct			  c0			c1			  c2			c3
   20    22     5     2	 2
   24     9     7     8	 2
   25    21     9     3	 2

