; Created by cgenff_charmm2gmx.py

[ moleculetype ]
; Name			   nrexcl
JZ4				 3

[ atoms ]
;	 nr		  type	resnr residue  atom   cgnr	   charge		mass  typeB    chargeB		massB
; residue	 1 JZ4 rtp JZ4 q	qsum
     1     CG2R61      1    JZ4     C1      1     -0.114     12.011   ;
     2     CG2R61      1    JZ4     C2      2      0.028     12.011   ;
     3     CG2R61      1    JZ4     C3      3     -0.125     12.011   ;
     4     CG2R61      1    JZ4     C4      4      0.098     12.011   ;
     5     CG2R61      1    JZ4     C5      5     -0.033     12.011   ;
     6     CG2R61      1    JZ4     C6      6     -0.139     12.011   ;
     7      CG301      1    JZ4     C7      7     -0.006     12.011   ;
     8      CG321      1    JZ4     C8      8     -0.170     12.011   ;
     9      CG321      1    JZ4     C9      9     -0.298     12.011   ;
    10     CG2DC1      1    JZ4    C10     10     -0.030     12.011   ;
    11     CG2DC1      1    JZ4    C11     11     -0.198     12.011   ;
    12      CG331      1    JZ4    C12     12     -0.264     12.011   ;
    13      CG331      1    JZ4    C13     13     -0.271     12.011   ;
    14      CG331      1    JZ4    C14     14     -0.271     12.011   ;
    15      CG311      1    JZ4    C15     15     -0.022     12.011   ;
    16      CG311      1    JZ4    C16     16     -0.055     12.011   ;
    17     CG3RC1      1    JZ4    C17     17      0.293     12.011   ;
    18     NG3C51      1    JZ4    N18     18     -1.024     14.007   ;
    19      CG321      1    JZ4    C19     19      0.056     12.011   ;
    20     CG2R52      1    JZ4    C20     20      0.747     12.011   ;
    21     NG2R50      1    JZ4    N21     21     -0.479     14.007   ;
    22     NG3C51      1    JZ4    N22     22     -0.149     14.007   ;
    23     CG2R61      1    JZ4    C23     23      0.023     12.011   ;
    24      CG331      1    JZ4    C24     24     -0.212     12.011   ;
    25     CG2R61      1    JZ4    C25     25     -0.115     12.011   ;
    26     CG2R61      1    JZ4    C26     26     -0.115     12.011   ;
    27     CG2R61      1    JZ4    C27     27     -0.115     12.011   ;
    28     CG2R61      1    JZ4    C28     28     -0.115     12.011   ;
    29     CG2R61      1    JZ4    C29     29     -0.115     12.011   ;
    30      CG331      1    JZ4    C30     30     -0.273     12.011   ;
    31      CG321      1    JZ4    C31     31     -0.177     12.011   ;
    32      CG321      1    JZ4    C32     32     -0.181     12.011   ;
    33      CG321      1    JZ4    C33     33     -0.179     12.011   ;
    34      CG321      1    JZ4    C34     34     -0.176     12.011   ;
    35      CG321      1    JZ4    C35     35     -0.175     12.011   ;
    36      CG321      1    JZ4    C36     36     -0.133     12.011   ;
    37      HGR61      1    JZ4    H37     37      0.115      1.008   ;
    38      HGR61      1    JZ4    H38     38      0.115      1.008   ;
    39      HGR61      1    JZ4    H39     39      0.115      1.008   ;
    40       HGA2      1    JZ4    H40     40      0.090      1.008   ;
    41       HGA2      1    JZ4    H41     41      0.090      1.008   ;
    42       HGA2      1    JZ4    H42     42      0.090      1.008   ;
    43       HGA2      1    JZ4    H43     43      0.090      1.008   ;
    44       HGA3      1    JZ4    H44     44      0.090      1.008   ;
    45       HGA3      1    JZ4    H45     45      0.090      1.008   ;
    46       HGA3      1    JZ4    H46     46      0.090      1.008   ;
    47       HGA3      1    JZ4    H47     47      0.090      1.008   ;
    48       HGA3      1    JZ4    H48     48      0.090      1.008   ;
    49       HGA3      1    JZ4    H49     49      0.090      1.008   ;
    50       HGA3      1    JZ4    H50     50      0.090      1.008   ;
    51       HGA3      1    JZ4    H51     51      0.090      1.008   ;
    52       HGA3      1    JZ4    H52     52      0.090      1.008   ;
    53       HGA2      1    JZ4    H53     53      0.090      1.008   ;
    54       HGA2      1    JZ4    H54     54      0.090      1.008   ;
    55       HGA3      1    JZ4    H55     55      0.090      1.008   ;
    56       HGA3      1    JZ4    H56     56      0.090      1.008   ;
    57       HGA3      1    JZ4    H57     57      0.090      1.008   ;
    58      HGR61      1    JZ4    H58     58      0.115      1.008   ;
    59      HGR61      1    JZ4    H59     59      0.115      1.008   ;
    60      HGR61      1    JZ4    H60     60      0.115      1.008   ;
    61      HGR61      1    JZ4    H61     61      0.115      1.008   ;
    62      HGR61      1    JZ4    H62     62      0.115      1.008   ;
    63       HGA3      1    JZ4    H63     63      0.090      1.008   ;
    64       HGA3      1    JZ4    H64     64      0.090      1.008   ;
    65       HGA3      1    JZ4    H65     65      0.090      1.008   ;
    66       HGA2      1    JZ4    H66     66      0.090      1.008   ;
    67       HGA2      1    JZ4    H67     67      0.090      1.008   ;
    68       HGA2      1    JZ4    H68     68      0.090      1.008   ;
    69       HGA2      1    JZ4    H69     69      0.090      1.008   ;
    70       HGA2      1    JZ4    H70     70      0.090      1.008   ;
    71       HGA2      1    JZ4    H71     71      0.090      1.008   ;
    72       HGA2      1    JZ4    H72     72      0.090      1.008   ;
    73       HGA2      1    JZ4    H73     73      0.090      1.008   ;
    74       HGA2      1    JZ4    H74     74      0.090      1.008   ;
    75       HGA2      1    JZ4    H75     75      0.090      1.008   ;
    76       HGA2      1    JZ4    H76     76      0.090      1.008   ;
    77       HGA2      1    JZ4    H77     77      0.090      1.008   ;
    78       HGA1      1    JZ4     H1     78      0.090      1.008   ;
    79       HGA1      1    JZ4     H2     79      0.090      1.008   ;
    80       HGA1      1    JZ4     H3     80      0.090      1.008   ;
    81       HGP1      1    JZ4     H4     81      0.324      1.008   ;

[ bonds ]
;	ai	  aj funct			  c0			c1			  c2			c3
    1    37	 1 ;      CG2R61      HGR61
    1     2	 1 ;      CG2R61     CG2R61
    1     6	 1 ;      CG2R61     CG2R61
    2    12	 1 ;      CG2R61      CG331
    2     3	 1 ;      CG2R61     CG2R61
    3    38	 1 ;      CG2R61      HGR61
    3     4	 1 ;      CG2R61     CG2R61
    4     5	 1 ;      CG2R61     CG2R61
    4     7	 1 ;      CG2R61      CG301
    5     6	 1 ;      CG2R61     CG2R61
    5    11	 1 ;      CG2R61     CG2DC1
    6    39	 1 ;      CG2R61      HGR61
    7    14	 1 ;       CG301      CG331
    7    13	 1 ;       CG301      CG331
    7     8	 1 ;       CG301      CG321
    8    41	 1 ;       CG321       HGA2
    8     9	 1 ;       CG321      CG321
    8    40	 1 ;       CG321       HGA2
    9    42	 1 ;       CG321       HGA2
    9    10	 1 ;       CG321     CG2DC1
    9    43	 1 ;       CG321       HGA2
   10    11	 1 ;      CG2DC1     CG2DC1
   10    15	 1 ;      CG2DC1      CG311
   11    19	 1 ;      CG2DC1      CG321
   12    44	 1 ;       CG331       HGA3
   12    45	 1 ;       CG331       HGA3
   12    46	 1 ;       CG331       HGA3
   13    47	 1 ;       CG331       HGA3
   13    48	 1 ;       CG331       HGA3
   13    49	 1 ;       CG331       HGA3
   14    50	 1 ;       CG331       HGA3
   14    52	 1 ;       CG331       HGA3
   14    51	 1 ;       CG331       HGA3
   15    16	 1 ;       CG311      CG311
   15    24	 1 ;       CG311      CG331
   15    78	 1 ;       CG311       HGA1
   16    17	 1 ;       CG311     CG3RC1
   16    23	 1 ;       CG311     CG2R61
   16    79	 1 ;       CG311       HGA1
   17    18	 1 ;      CG3RC1     NG3C51
   17    20	 1 ;      CG3RC1     CG2R52
   17    80	 1 ;      CG3RC1       HGA1
   18    22	 1 ;      NG3C51     NG3C51
   18    19	 1 ;      NG3C51      CG321
   19    53	 1 ;       CG321       HGA2
   19    54	 1 ;       CG321       HGA2
   20    21	 1 ;      CG2R52     NG2R50
   20    36	 1 ;      CG2R52      CG321
   21    22	 1 ;      NG2R50     NG3C51
   22    81	 1 ;      NG3C51       HGP1
   23    29	 1 ;      CG2R61     CG2R61
   23    25	 1 ;      CG2R61     CG2R61
   24    55	 1 ;       CG331       HGA3
   24    57	 1 ;       CG331       HGA3
   24    56	 1 ;       CG331       HGA3
   25    58	 1 ;      CG2R61      HGR61
   25    26	 1 ;      CG2R61     CG2R61
   26    27	 1 ;      CG2R61     CG2R61
   26    59	 1 ;      CG2R61      HGR61
   27    28	 1 ;      CG2R61     CG2R61
   27    60	 1 ;      CG2R61      HGR61
   28    29	 1 ;      CG2R61     CG2R61
   28    61	 1 ;      CG2R61      HGR61
   29    62	 1 ;      CG2R61      HGR61
   30    65	 1 ;       CG331       HGA3
   30    64	 1 ;       CG331       HGA3
   30    63	 1 ;       CG331       HGA3
   30    31	 1 ;       CG331      CG321
   31    67	 1 ;       CG321       HGA2
   31    32	 1 ;       CG321      CG321
   31    66	 1 ;       CG321       HGA2
   32    68	 1 ;       CG321       HGA2
   32    69	 1 ;       CG321       HGA2
   32    33	 1 ;       CG321      CG321
   33    71	 1 ;       CG321       HGA2
   33    70	 1 ;       CG321       HGA2
   33    34	 1 ;       CG321      CG321
   34    73	 1 ;       CG321       HGA2
   34    72	 1 ;       CG321       HGA2
   34    35	 1 ;       CG321      CG321
   35    74	 1 ;       CG321       HGA2
   35    36	 1 ;       CG321      CG321
   35    75	 1 ;       CG321       HGA2
   36    77	 1 ;       CG321       HGA2
   36    76	 1 ;       CG321       HGA2

[ pairs ]
;	ai	  aj funct			  c0			c1			  c2			c3
    1    44	 1
    1    45	 1
    1    46	 1
    1    38	 1
    1     4	 1
    1    11	 1
    2     5	 1
    2    39	 1
    2     7	 1
    3    37	 1
    3     6	 1
    3    44	 1
    3    45	 1
    3    46	 1
    3    11	 1
    3    14	 1
    3    13	 1
    3     8	 1
    4    12	 1
    4    39	 1
    4    10	 1
    4    19	 1
    4    50	 1
    4    52	 1
    4    51	 1
    4    47	 1
    4    48	 1
    4    49	 1
    4    41	 1
    4     9	 1
    4    40	 1
    5    37	 1
    5    38	 1
    5    14	 1
    5    13	 1
    5     8	 1
    5     9	 1
    5    15	 1
    5    18	 1
    5    53	 1
    5    54	 1
    6    12	 1
    6     7	 1
    6    10	 1
    6    19	 1
    7    38	 1
    7    11	 1
    7    42	 1
    7    10	 1
    7    43	 1
    8    50	 1
    8    52	 1
    8    51	 1
    8    47	 1
    8    48	 1
    8    49	 1
    8    11	 1
    8    15	 1
    9    14	 1
    9    13	 1
    9    19	 1
    9    16	 1
    9    24	 1
    9    78	 1
   10    41	 1
   10    40	 1
   10    18	 1
   10    53	 1
   10    54	 1
   10    17	 1
   10    23	 1
   10    79	 1
   10    55	 1
   10    57	 1
   10    56	 1
   11    39	 1
   11    42	 1
   11    43	 1
   11    16	 1
   11    24	 1
   11    78	 1
   11    17	 1
   11    22	 1
   12    37	 1
   12    38	 1
   13    50	 1
   13    52	 1
   13    51	 1
   13    41	 1
   13    40	 1
   14    47	 1
   14    48	 1
   14    49	 1
   14    41	 1
   14    40	 1
   15    42	 1
   15    43	 1
   15    19	 1
   15    18	 1
   15    20	 1
   15    80	 1
   15    29	 1
   15    25	 1
   16    55	 1
   16    57	 1
   16    56	 1
   16    22	 1
   16    19	 1
   16    21	 1
   16    36	 1
   16    28	 1
   16    62	 1
   16    58	 1
   16    26	 1
   17    24	 1
   17    78	 1
   17    29	 1
   17    25	 1
   17    81	 1
   17    53	 1
   17    54	 1
   17    35	 1
   17    77	 1
   17    76	 1
   18    23	 1
   18    79	 1
   18    36	 1
   19    20	 1
   19    80	 1
   19    21	 1
   19    81	 1
   20    23	 1
   20    79	 1
   20    81	 1
   20    34	 1
   20    74	 1
   20    75	 1
   21    80	 1
   21    35	 1
   21    77	 1
   21    76	 1
   22    80	 1
   22    53	 1
   22    54	 1
   22    36	 1
   23    24	 1
   23    78	 1
   23    80	 1
   23    27	 1
   23    59	 1
   23    61	 1
   24    79	 1
   25    79	 1
   25    28	 1
   25    62	 1
   25    60	 1
   26    29	 1
   26    61	 1
   27    58	 1
   27    62	 1
   28    59	 1
   29    79	 1
   29    58	 1
   29    60	 1
   30    68	 1
   30    69	 1
   30    33	 1
   31    71	 1
   31    70	 1
   31    34	 1
   32    65	 1
   32    64	 1
   32    63	 1
   32    73	 1
   32    72	 1
   32    35	 1
   33    67	 1
   33    66	 1
   33    74	 1
   33    36	 1
   33    75	 1
   34    68	 1
   34    69	 1
   34    77	 1
   34    76	 1
   35    71	 1
   35    70	 1
   36    80	 1
   36    73	 1
   36    72	 1
   37    39	 1
   40    42	 1
   40    43	 1
   41    42	 1
   41    43	 1
   55    78	 1
   56    78	 1
   57    78	 1
   58    59	 1
   59    60	 1
   60    61	 1
   61    62	 1
   63    67	 1
   63    66	 1
   64    67	 1
   64    66	 1
   65    67	 1
   65    66	 1
   66    68	 1
   66    69	 1
   67    68	 1
   67    69	 1
   68    71	 1
   68    70	 1
   69    71	 1
   69    70	 1
   70    73	 1
   70    72	 1
   71    73	 1
   71    72	 1
   72    74	 1
   72    75	 1
   73    74	 1
   73    75	 1
   74    77	 1
   74    76	 1
   75    77	 1
   75    76	 1
   78    79	 1
   79    80	 1

[ angles ]
;	ai	  aj	ak funct			c0			  c1			c2			  c3
   37     1     2	5 ;      HGR61     CG2R61     CG2R61
   37     1     6	5 ;      HGR61     CG2R61     CG2R61
    2     1     6	5 ;     CG2R61     CG2R61     CG2R61
    1     2    12	5 ;     CG2R61     CG2R61      CG331
    1     2     3	5 ;     CG2R61     CG2R61     CG2R61
   12     2     3	5 ;      CG331     CG2R61     CG2R61
    2     3    38	5 ;     CG2R61     CG2R61      HGR61
    2     3     4	5 ;     CG2R61     CG2R61     CG2R61
   38     3     4	5 ;      HGR61     CG2R61     CG2R61
    3     4     5	5 ;     CG2R61     CG2R61     CG2R61
    3     4     7	5 ;     CG2R61     CG2R61      CG301
    5     4     7	5 ;     CG2R61     CG2R61      CG301
    4     5     6	5 ;     CG2R61     CG2R61     CG2R61
    4     5    11	5 ;     CG2R61     CG2R61     CG2DC1
    6     5    11	5 ;     CG2R61     CG2R61     CG2DC1
    1     6     5	5 ;     CG2R61     CG2R61     CG2R61
    1     6    39	5 ;     CG2R61     CG2R61      HGR61
    5     6    39	5 ;     CG2R61     CG2R61      HGR61
    4     7    14	5 ;     CG2R61      CG301      CG331
    4     7    13	5 ;     CG2R61      CG301      CG331
    4     7     8	5 ;     CG2R61      CG301      CG321
   14     7    13	5 ;      CG331      CG301      CG331
   14     7     8	5 ;      CG331      CG301      CG321
   13     7     8	5 ;      CG331      CG301      CG321
    7     8    41	5 ;      CG301      CG321       HGA2
    7     8     9	5 ;      CG301      CG321      CG321
    7     8    40	5 ;      CG301      CG321       HGA2
   41     8     9	5 ;       HGA2      CG321      CG321
   41     8    40	5 ;       HGA2      CG321       HGA2
    9     8    40	5 ;      CG321      CG321       HGA2
    8     9    42	5 ;      CG321      CG321       HGA2
    8     9    10	5 ;      CG321      CG321     CG2DC1
    8     9    43	5 ;      CG321      CG321       HGA2
   42     9    10	5 ;       HGA2      CG321     CG2DC1
   42     9    43	5 ;       HGA2      CG321       HGA2
   10     9    43	5 ;     CG2DC1      CG321       HGA2
    9    10    11	5 ;      CG321     CG2DC1     CG2DC1
    9    10    15	5 ;      CG321     CG2DC1      CG311
   11    10    15	5 ;     CG2DC1     CG2DC1      CG311
    5    11    10	5 ;     CG2R61     CG2DC1     CG2DC1
    5    11    19	5 ;     CG2R61     CG2DC1      CG321
   10    11    19	5 ;     CG2DC1     CG2DC1      CG321
    2    12    44	5 ;     CG2R61      CG331       HGA3
    2    12    45	5 ;     CG2R61      CG331       HGA3
    2    12    46	5 ;     CG2R61      CG331       HGA3
   44    12    45	5 ;       HGA3      CG331       HGA3
   44    12    46	5 ;       HGA3      CG331       HGA3
   45    12    46	5 ;       HGA3      CG331       HGA3
    7    13    47	5 ;      CG301      CG331       HGA3
    7    13    48	5 ;      CG301      CG331       HGA3
    7    13    49	5 ;      CG301      CG331       HGA3
   47    13    48	5 ;       HGA3      CG331       HGA3
   47    13    49	5 ;       HGA3      CG331       HGA3
   48    13    49	5 ;       HGA3      CG331       HGA3
    7    14    50	5 ;      CG301      CG331       HGA3
    7    14    52	5 ;      CG301      CG331       HGA3
    7    14    51	5 ;      CG301      CG331       HGA3
   50    14    52	5 ;       HGA3      CG331       HGA3
   50    14    51	5 ;       HGA3      CG331       HGA3
   52    14    51	5 ;       HGA3      CG331       HGA3
   10    15    16	5 ;     CG2DC1      CG311      CG311
   10    15    24	5 ;     CG2DC1      CG311      CG331
   10    15    78	5 ;     CG2DC1      CG311       HGA1
   16    15    24	5 ;      CG311      CG311      CG331
   16    15    78	5 ;      CG311      CG311       HGA1
   24    15    78	5 ;      CG331      CG311       HGA1
   15    16    17	5 ;      CG311      CG311     CG3RC1
   15    16    23	5 ;      CG311      CG311     CG2R61
   15    16    79	5 ;      CG311      CG311       HGA1
   17    16    23	5 ;     CG3RC1      CG311     CG2R61
   17    16    79	5 ;     CG3RC1      CG311       HGA1
   23    16    79	5 ;     CG2R61      CG311       HGA1
   16    17    18	5 ;      CG311     CG3RC1     NG3C51
   16    17    20	5 ;      CG311     CG3RC1     CG2R52
   16    17    80	5 ;      CG311     CG3RC1       HGA1
   18    17    20	5 ;     NG3C51     CG3RC1     CG2R52
   18    17    80	5 ;     NG3C51     CG3RC1       HGA1
   20    17    80	5 ;     CG2R52     CG3RC1       HGA1
   17    18    22	5 ;     CG3RC1     NG3C51     NG3C51
   17    18    19	5 ;     CG3RC1     NG3C51      CG321
   22    18    19	5 ;     NG3C51     NG3C51      CG321
   11    19    18	5 ;     CG2DC1      CG321     NG3C51
   11    19    53	5 ;     CG2DC1      CG321       HGA2
   11    19    54	5 ;     CG2DC1      CG321       HGA2
   18    19    53	5 ;     NG3C51      CG321       HGA2
   18    19    54	5 ;     NG3C51      CG321       HGA2
   53    19    54	5 ;       HGA2      CG321       HGA2
   17    20    21	5 ;     CG3RC1     CG2R52     NG2R50
   17    20    36	5 ;     CG3RC1     CG2R52      CG321
   21    20    36	5 ;     NG2R50     CG2R52      CG321
   20    21    22	5 ;     CG2R52     NG2R50     NG3C51
   18    22    21	5 ;     NG3C51     NG3C51     NG2R50
   18    22    81	5 ;     NG3C51     NG3C51       HGP1
   21    22    81	5 ;     NG2R50     NG3C51       HGP1
   16    23    29	5 ;      CG311     CG2R61     CG2R61
   16    23    25	5 ;      CG311     CG2R61     CG2R61
   29    23    25	5 ;     CG2R61     CG2R61     CG2R61
   15    24    55	5 ;      CG311      CG331       HGA3
   15    24    57	5 ;      CG311      CG331       HGA3
   15    24    56	5 ;      CG311      CG331       HGA3
   55    24    57	5 ;       HGA3      CG331       HGA3
   55    24    56	5 ;       HGA3      CG331       HGA3
   57    24    56	5 ;       HGA3      CG331       HGA3
   23    25    58	5 ;     CG2R61     CG2R61      HGR61
   23    25    26	5 ;     CG2R61     CG2R61     CG2R61
   58    25    26	5 ;      HGR61     CG2R61     CG2R61
   25    26    27	5 ;     CG2R61     CG2R61     CG2R61
   25    26    59	5 ;     CG2R61     CG2R61      HGR61
   27    26    59	5 ;     CG2R61     CG2R61      HGR61
   26    27    28	5 ;     CG2R61     CG2R61     CG2R61
   26    27    60	5 ;     CG2R61     CG2R61      HGR61
   28    27    60	5 ;     CG2R61     CG2R61      HGR61
   27    28    29	5 ;     CG2R61     CG2R61     CG2R61
   27    28    61	5 ;     CG2R61     CG2R61      HGR61
   29    28    61	5 ;     CG2R61     CG2R61      HGR61
   23    29    28	5 ;     CG2R61     CG2R61     CG2R61
   23    29    62	5 ;     CG2R61     CG2R61      HGR61
   28    29    62	5 ;     CG2R61     CG2R61      HGR61
   65    30    64	5 ;       HGA3      CG331       HGA3
   65    30    63	5 ;       HGA3      CG331       HGA3
   65    30    31	5 ;       HGA3      CG331      CG321
   64    30    63	5 ;       HGA3      CG331       HGA3
   64    30    31	5 ;       HGA3      CG331      CG321
   63    30    31	5 ;       HGA3      CG331      CG321
   30    31    67	5 ;      CG331      CG321       HGA2
   30    31    32	5 ;      CG331      CG321      CG321
   30    31    66	5 ;      CG331      CG321       HGA2
   67    31    32	5 ;       HGA2      CG321      CG321
   67    31    66	5 ;       HGA2      CG321       HGA2
   32    31    66	5 ;      CG321      CG321       HGA2
   31    32    68	5 ;      CG321      CG321       HGA2
   31    32    69	5 ;      CG321      CG321       HGA2
   31    32    33	5 ;      CG321      CG321      CG321
   68    32    69	5 ;       HGA2      CG321       HGA2
   68    32    33	5 ;       HGA2      CG321      CG321
   69    32    33	5 ;       HGA2      CG321      CG321
   32    33    71	5 ;      CG321      CG321       HGA2
   32    33    70	5 ;      CG321      CG321       HGA2
   32    33    34	5 ;      CG321      CG321      CG321
   71    33    70	5 ;       HGA2      CG321       HGA2
   71    33    34	5 ;       HGA2      CG321      CG321
   70    33    34	5 ;       HGA2      CG321      CG321
   33    34    73	5 ;      CG321      CG321       HGA2
   33    34    72	5 ;      CG321      CG321       HGA2
   33    34    35	5 ;      CG321      CG321      CG321
   73    34    72	5 ;       HGA2      CG321       HGA2
   73    34    35	5 ;       HGA2      CG321      CG321
   72    34    35	5 ;       HGA2      CG321      CG321
   34    35    74	5 ;      CG321      CG321       HGA2
   34    35    36	5 ;      CG321      CG321      CG321
   34    35    75	5 ;      CG321      CG321       HGA2
   74    35    36	5 ;       HGA2      CG321      CG321
   74    35    75	5 ;       HGA2      CG321       HGA2
   36    35    75	5 ;      CG321      CG321       HGA2
   20    36    35	5 ;     CG2R52      CG321      CG321
   20    36    77	5 ;     CG2R52      CG321       HGA2
   20    36    76	5 ;     CG2R52      CG321       HGA2
   35    36    77	5 ;      CG321      CG321       HGA2
   35    36    76	5 ;      CG321      CG321       HGA2
   77    36    76	5 ;       HGA2      CG321       HGA2

[ dihedrals ]
;	ai	  aj	ak	  al funct			  c0			c1			  c2			c3			  c4			c5
   37     1     2    12	 9 ;      HGR61     CG2R61     CG2R61      CG331
   37     1     2     3	 9 ;      HGR61     CG2R61     CG2R61     CG2R61
    6     1     2    12	 9 ;     CG2R61     CG2R61     CG2R61      CG331
    6     1     2     3	 9 ;     CG2R61     CG2R61     CG2R61     CG2R61
   37     1     6     5	 9 ;      HGR61     CG2R61     CG2R61     CG2R61
   37     1     6    39	 9 ;      HGR61     CG2R61     CG2R61      HGR61
    2     1     6     5	 9 ;     CG2R61     CG2R61     CG2R61     CG2R61
    2     1     6    39	 9 ;     CG2R61     CG2R61     CG2R61      HGR61
    1     2    12    44	 9 ;     CG2R61     CG2R61      CG331       HGA3
    1     2    12    45	 9 ;     CG2R61     CG2R61      CG331       HGA3
    1     2    12    46	 9 ;     CG2R61     CG2R61      CG331       HGA3
    3     2    12    44	 9 ;     CG2R61     CG2R61      CG331       HGA3
    3     2    12    45	 9 ;     CG2R61     CG2R61      CG331       HGA3
    3     2    12    46	 9 ;     CG2R61     CG2R61      CG331       HGA3
    1     2     3    38	 9 ;     CG2R61     CG2R61     CG2R61      HGR61
    1     2     3     4	 9 ;     CG2R61     CG2R61     CG2R61     CG2R61
   12     2     3    38	 9 ;      CG331     CG2R61     CG2R61      HGR61
   12     2     3     4	 9 ;      CG331     CG2R61     CG2R61     CG2R61
    2     3     4     5	 9 ;     CG2R61     CG2R61     CG2R61     CG2R61
    2     3     4     7	 9 ;     CG2R61     CG2R61     CG2R61      CG301
   38     3     4     5	 9 ;      HGR61     CG2R61     CG2R61     CG2R61
   38     3     4     7	 9 ;      HGR61     CG2R61     CG2R61      CG301
    3     4     5     6	 9 ;     CG2R61     CG2R61     CG2R61     CG2R61
    3     4     5    11	 9 ;     CG2R61     CG2R61     CG2R61     CG2DC1
    7     4     5     6	 9 ;      CG301     CG2R61     CG2R61     CG2R61
    7     4     5    11	 9 ;      CG301     CG2R61     CG2R61     CG2DC1
    3     4     7    14	 9 ;     CG2R61     CG2R61      CG301      CG331
    3     4     7    13	 9 ;     CG2R61     CG2R61      CG301      CG331
    3     4     7     8	 9 ;     CG2R61     CG2R61      CG301      CG321
    5     4     7    14	 9 ;     CG2R61     CG2R61      CG301      CG331
    5     4     7    13	 9 ;     CG2R61     CG2R61      CG301      CG331
    5     4     7     8	 9 ;     CG2R61     CG2R61      CG301      CG321
    4     5     6     1	 9 ;     CG2R61     CG2R61     CG2R61     CG2R61
    4     5     6    39	 9 ;     CG2R61     CG2R61     CG2R61      HGR61
   11     5     6     1	 9 ;     CG2DC1     CG2R61     CG2R61     CG2R61
   11     5     6    39	 9 ;     CG2DC1     CG2R61     CG2R61      HGR61
    4     5    11    10	 9 ;     CG2R61     CG2R61     CG2DC1     CG2DC1
    4     5    11    19	 9 ;     CG2R61     CG2R61     CG2DC1      CG321
    6     5    11    10	 9 ;     CG2R61     CG2R61     CG2DC1     CG2DC1
    6     5    11    19	 9 ;     CG2R61     CG2R61     CG2DC1      CG321
    4     7    14    50	 9 ;     CG2R61      CG301      CG331       HGA3
    4     7    14    52	 9 ;     CG2R61      CG301      CG331       HGA3
    4     7    14    51	 9 ;     CG2R61      CG301      CG331       HGA3
   13     7    14    50	 9 ;      CG331      CG301      CG331       HGA3
   13     7    14    52	 9 ;      CG331      CG301      CG331       HGA3
   13     7    14    51	 9 ;      CG331      CG301      CG331       HGA3
    8     7    14    50	 9 ;      CG321      CG301      CG331       HGA3
    8     7    14    52	 9 ;      CG321      CG301      CG331       HGA3
    8     7    14    51	 9 ;      CG321      CG301      CG331       HGA3
    4     7    13    47	 9 ;     CG2R61      CG301      CG331       HGA3
    4     7    13    48	 9 ;     CG2R61      CG301      CG331       HGA3
    4     7    13    49	 9 ;     CG2R61      CG301      CG331       HGA3
   14     7    13    47	 9 ;      CG331      CG301      CG331       HGA3
   14     7    13    48	 9 ;      CG331      CG301      CG331       HGA3
   14     7    13    49	 9 ;      CG331      CG301      CG331       HGA3
    8     7    13    47	 9 ;      CG321      CG301      CG331       HGA3
    8     7    13    48	 9 ;      CG321      CG301      CG331       HGA3
    8     7    13    49	 9 ;      CG321      CG301      CG331       HGA3
    4     7     8    41	 9 ;     CG2R61      CG301      CG321       HGA2
    4     7     8     9	 9 ;     CG2R61      CG301      CG321      CG321
    4     7     8    40	 9 ;     CG2R61      CG301      CG321       HGA2
   14     7     8    41	 9 ;      CG331      CG301      CG321       HGA2
   14     7     8     9	 9 ;      CG331      CG301      CG321      CG321
   14     7     8    40	 9 ;      CG331      CG301      CG321       HGA2
   13     7     8    41	 9 ;      CG331      CG301      CG321       HGA2
   13     7     8     9	 9 ;      CG331      CG301      CG321      CG321
   13     7     8    40	 9 ;      CG331      CG301      CG321       HGA2
    7     8     9    42	 9 ;      CG301      CG321      CG321       HGA2
    7     8     9    10	 9 ;      CG301      CG321      CG321     CG2DC1
    7     8     9    43	 9 ;      CG301      CG321      CG321       HGA2
   41     8     9    42	 9 ;       HGA2      CG321      CG321       HGA2
   41     8     9    10	 9 ;       HGA2      CG321      CG321     CG2DC1
   41     8     9    43	 9 ;       HGA2      CG321      CG321       HGA2
   40     8     9    42	 9 ;       HGA2      CG321      CG321       HGA2
   40     8     9    10	 9 ;       HGA2      CG321      CG321     CG2DC1
   40     8     9    43	 9 ;       HGA2      CG321      CG321       HGA2
    8     9    10    11	 9 ;      CG321      CG321     CG2DC1     CG2DC1
    8     9    10    15	 9 ;      CG321      CG321     CG2DC1      CG311
   42     9    10    11	 9 ;       HGA2      CG321     CG2DC1     CG2DC1
   42     9    10    15	 9 ;       HGA2      CG321     CG2DC1      CG311
   43     9    10    11	 9 ;       HGA2      CG321     CG2DC1     CG2DC1
   43     9    10    15	 9 ;       HGA2      CG321     CG2DC1      CG311
    9    10    11     5	 9 ;      CG321     CG2DC1     CG2DC1     CG2R61
    9    10    11    19	 9 ;      CG321     CG2DC1     CG2DC1      CG321
   15    10    11     5	 9 ;      CG311     CG2DC1     CG2DC1     CG2R61
   15    10    11    19	 9 ;      CG311     CG2DC1     CG2DC1      CG321
    9    10    15    16	 9 ;      CG321     CG2DC1      CG311      CG311
    9    10    15    24	 9 ;      CG321     CG2DC1      CG311      CG331
    9    10    15    78	 9 ;      CG321     CG2DC1      CG311       HGA1
   11    10    15    16	 9 ;     CG2DC1     CG2DC1      CG311      CG311
   11    10    15    24	 9 ;     CG2DC1     CG2DC1      CG311      CG331
   11    10    15    78	 9 ;     CG2DC1     CG2DC1      CG311       HGA1
    5    11    19    18	 9 ;     CG2R61     CG2DC1      CG321     NG3C51
    5    11    19    53	 9 ;     CG2R61     CG2DC1      CG321       HGA2
    5    11    19    54	 9 ;     CG2R61     CG2DC1      CG321       HGA2
   10    11    19    18	 9 ;     CG2DC1     CG2DC1      CG321     NG3C51
   10    11    19    53	 9 ;     CG2DC1     CG2DC1      CG321       HGA2
   10    11    19    54	 9 ;     CG2DC1     CG2DC1      CG321       HGA2
   10    15    16    17	 9 ;     CG2DC1      CG311      CG311     CG3RC1
   10    15    16    23	 9 ;     CG2DC1      CG311      CG311     CG2R61
   10    15    16    79	 9 ;     CG2DC1      CG311      CG311       HGA1
   24    15    16    17	 9 ;      CG331      CG311      CG311     CG3RC1
   24    15    16    23	 9 ;      CG331      CG311      CG311     CG2R61
   24    15    16    79	 9 ;      CG331      CG311      CG311       HGA1
   78    15    16    17	 9 ;       HGA1      CG311      CG311     CG3RC1
   78    15    16    23	 9 ;       HGA1      CG311      CG311     CG2R61
   78    15    16    79	 9 ;       HGA1      CG311      CG311       HGA1
   10    15    24    55	 9 ;     CG2DC1      CG311      CG331       HGA3
   10    15    24    57	 9 ;     CG2DC1      CG311      CG331       HGA3
   10    15    24    56	 9 ;     CG2DC1      CG311      CG331       HGA3
   16    15    24    55	 9 ;      CG311      CG311      CG331       HGA3
   16    15    24    57	 9 ;      CG311      CG311      CG331       HGA3
   16    15    24    56	 9 ;      CG311      CG311      CG331       HGA3
   78    15    24    55	 9 ;       HGA1      CG311      CG331       HGA3
   78    15    24    57	 9 ;       HGA1      CG311      CG331       HGA3
   78    15    24    56	 9 ;       HGA1      CG311      CG331       HGA3
   15    16    17    18	 9 ;      CG311      CG311     CG3RC1     NG3C51
   15    16    17    20	 9 ;      CG311      CG311     CG3RC1     CG2R52
   15    16    17    80	 9 ;      CG311      CG311     CG3RC1       HGA1
   23    16    17    18	 9 ;     CG2R61      CG311     CG3RC1     NG3C51
   23    16    17    20	 9 ;     CG2R61      CG311     CG3RC1     CG2R52
   23    16    17    80	 9 ;     CG2R61      CG311     CG3RC1       HGA1
   79    16    17    18	 9 ;       HGA1      CG311     CG3RC1     NG3C51
   79    16    17    20	 9 ;       HGA1      CG311     CG3RC1     CG2R52
   79    16    17    80	 9 ;       HGA1      CG311     CG3RC1       HGA1
   15    16    23    29	 9 ;      CG311      CG311     CG2R61     CG2R61
   15    16    23    25	 9 ;      CG311      CG311     CG2R61     CG2R61
   17    16    23    29	 9 ;     CG3RC1      CG311     CG2R61     CG2R61
   17    16    23    25	 9 ;     CG3RC1      CG311     CG2R61     CG2R61
   79    16    23    29	 9 ;       HGA1      CG311     CG2R61     CG2R61
   79    16    23    25	 9 ;       HGA1      CG311     CG2R61     CG2R61
   16    17    18    22	 9 ;      CG311     CG3RC1     NG3C51     NG3C51
   16    17    18    19	 9 ;      CG311     CG3RC1     NG3C51      CG321
   20    17    18    22	 9 ;     CG2R52     CG3RC1     NG3C51     NG3C51
   20    17    18    19	 9 ;     CG2R52     CG3RC1     NG3C51      CG321
   80    17    18    22	 9 ;       HGA1     CG3RC1     NG3C51     NG3C51
   80    17    18    19	 9 ;       HGA1     CG3RC1     NG3C51      CG321
   16    17    20    21	 9 ;      CG311     CG3RC1     CG2R52     NG2R50
   16    17    20    36	 9 ;      CG311     CG3RC1     CG2R52      CG321
   18    17    20    21	 9 ;     NG3C51     CG3RC1     CG2R52     NG2R50
   18    17    20    36	 9 ;     NG3C51     CG3RC1     CG2R52      CG321
   80    17    20    21	 9 ;       HGA1     CG3RC1     CG2R52     NG2R50
   80    17    20    36	 9 ;       HGA1     CG3RC1     CG2R52      CG321
   17    18    22    21	 9 ;     CG3RC1     NG3C51     NG3C51     NG2R50
   17    18    22    81	 9 ;     CG3RC1     NG3C51     NG3C51       HGP1
   19    18    22    21	 9 ;      CG321     NG3C51     NG3C51     NG2R50
   19    18    22    81	 9 ;      CG321     NG3C51     NG3C51       HGP1
   17    18    19    11	 9 ;     CG3RC1     NG3C51      CG321     CG2DC1
   17    18    19    53	 9 ;     CG3RC1     NG3C51      CG321       HGA2
   17    18    19    54	 9 ;     CG3RC1     NG3C51      CG321       HGA2
   22    18    19    11	 9 ;     NG3C51     NG3C51      CG321     CG2DC1
   22    18    19    53	 9 ;     NG3C51     NG3C51      CG321       HGA2
   22    18    19    54	 9 ;     NG3C51     NG3C51      CG321       HGA2
   17    20    21    22	 9 ;     CG3RC1     CG2R52     NG2R50     NG3C51
   36    20    21    22	 9 ;      CG321     CG2R52     NG2R50     NG3C51
   17    20    36    35	 9 ;     CG3RC1     CG2R52      CG321      CG321
   17    20    36    77	 9 ;     CG3RC1     CG2R52      CG321       HGA2
   17    20    36    76	 9 ;     CG3RC1     CG2R52      CG321       HGA2
   21    20    36    35	 9 ;     NG2R50     CG2R52      CG321      CG321
   21    20    36    77	 9 ;     NG2R50     CG2R52      CG321       HGA2
   21    20    36    76	 9 ;     NG2R50     CG2R52      CG321       HGA2
   20    21    22    18	 9 ;     CG2R52     NG2R50     NG3C51     NG3C51
   20    21    22    81	 9 ;     CG2R52     NG2R50     NG3C51       HGP1
   16    23    29    28	 9 ;      CG311     CG2R61     CG2R61     CG2R61
   16    23    29    62	 9 ;      CG311     CG2R61     CG2R61      HGR61
   25    23    29    28	 9 ;     CG2R61     CG2R61     CG2R61     CG2R61
   25    23    29    62	 9 ;     CG2R61     CG2R61     CG2R61      HGR61
   16    23    25    58	 9 ;      CG311     CG2R61     CG2R61      HGR61
   16    23    25    26	 9 ;      CG311     CG2R61     CG2R61     CG2R61
   29    23    25    58	 9 ;     CG2R61     CG2R61     CG2R61      HGR61
   29    23    25    26	 9 ;     CG2R61     CG2R61     CG2R61     CG2R61
   23    25    26    27	 9 ;     CG2R61     CG2R61     CG2R61     CG2R61
   23    25    26    59	 9 ;     CG2R61     CG2R61     CG2R61      HGR61
   58    25    26    27	 9 ;      HGR61     CG2R61     CG2R61     CG2R61
   58    25    26    59	 9 ;      HGR61     CG2R61     CG2R61      HGR61
   25    26    27    28	 9 ;     CG2R61     CG2R61     CG2R61     CG2R61
   25    26    27    60	 9 ;     CG2R61     CG2R61     CG2R61      HGR61
   59    26    27    28	 9 ;      HGR61     CG2R61     CG2R61     CG2R61
   59    26    27    60	 9 ;      HGR61     CG2R61     CG2R61      HGR61
   26    27    28    29	 9 ;     CG2R61     CG2R61     CG2R61     CG2R61
   26    27    28    61	 9 ;     CG2R61     CG2R61     CG2R61      HGR61
   60    27    28    29	 9 ;      HGR61     CG2R61     CG2R61     CG2R61
   60    27    28    61	 9 ;      HGR61     CG2R61     CG2R61      HGR61
   27    28    29    23	 9 ;     CG2R61     CG2R61     CG2R61     CG2R61
   27    28    29    62	 9 ;     CG2R61     CG2R61     CG2R61      HGR61
   61    28    29    23	 9 ;      HGR61     CG2R61     CG2R61     CG2R61
   61    28    29    62	 9 ;      HGR61     CG2R61     CG2R61      HGR61
   65    30    31    67	 9 ;       HGA3      CG331      CG321       HGA2
   65    30    31    32	 9 ;       HGA3      CG331      CG321      CG321
   65    30    31    66	 9 ;       HGA3      CG331      CG321       HGA2
   64    30    31    67	 9 ;       HGA3      CG331      CG321       HGA2
   64    30    31    32	 9 ;       HGA3      CG331      CG321      CG321
   64    30    31    66	 9 ;       HGA3      CG331      CG321       HGA2
   63    30    31    67	 9 ;       HGA3      CG331      CG321       HGA2
   63    30    31    32	 9 ;       HGA3      CG331      CG321      CG321
   63    30    31    66	 9 ;       HGA3      CG331      CG321       HGA2
   30    31    32    68	 9 ;      CG331      CG321      CG321       HGA2
   30    31    32    69	 9 ;      CG331      CG321      CG321       HGA2
   30    31    32    33	 9 ;      CG331      CG321      CG321      CG321
   67    31    32    68	 9 ;       HGA2      CG321      CG321       HGA2
   67    31    32    69	 9 ;       HGA2      CG321      CG321       HGA2
   67    31    32    33	 9 ;       HGA2      CG321      CG321      CG321
   66    31    32    68	 9 ;       HGA2      CG321      CG321       HGA2
   66    31    32    69	 9 ;       HGA2      CG321      CG321       HGA2
   66    31    32    33	 9 ;       HGA2      CG321      CG321      CG321
   31    32    33    71	 9 ;      CG321      CG321      CG321       HGA2
   31    32    33    70	 9 ;      CG321      CG321      CG321       HGA2
   31    32    33    34	 9 ;      CG321      CG321      CG321      CG321
   68    32    33    71	 9 ;       HGA2      CG321      CG321       HGA2
   68    32    33    70	 9 ;       HGA2      CG321      CG321       HGA2
   68    32    33    34	 9 ;       HGA2      CG321      CG321      CG321
   69    32    33    71	 9 ;       HGA2      CG321      CG321       HGA2
   69    32    33    70	 9 ;       HGA2      CG321      CG321       HGA2
   69    32    33    34	 9 ;       HGA2      CG321      CG321      CG321
   32    33    34    73	 9 ;      CG321      CG321      CG321       HGA2
   32    33    34    72	 9 ;      CG321      CG321      CG321       HGA2
   32    33    34    35	 9 ;      CG321      CG321      CG321      CG321
   71    33    34    73	 9 ;       HGA2      CG321      CG321       HGA2
   71    33    34    72	 9 ;       HGA2      CG321      CG321       HGA2
   71    33    34    35	 9 ;       HGA2      CG321      CG321      CG321
   70    33    34    73	 9 ;       HGA2      CG321      CG321       HGA2
   70    33    34    72	 9 ;       HGA2      CG321      CG321       HGA2
   70    33    34    35	 9 ;       HGA2      CG321      CG321      CG321
   33    34    35    74	 9 ;      CG321      CG321      CG321       HGA2
   33    34    35    36	 9 ;      CG321      CG321      CG321      CG321
   33    34    35    75	 9 ;      CG321      CG321      CG321       HGA2
   73    34    35    74	 9 ;       HGA2      CG321      CG321       HGA2
   73    34    35    36	 9 ;       HGA2      CG321      CG321      CG321
   73    34    35    75	 9 ;       HGA2      CG321      CG321       HGA2
   72    34    35    74	 9 ;       HGA2      CG321      CG321       HGA2
   72    34    35    36	 9 ;       HGA2      CG321      CG321      CG321
   72    34    35    75	 9 ;       HGA2      CG321      CG321       HGA2
   34    35    36    20	 9 ;      CG321      CG321      CG321     CG2R52
   34    35    36    77	 9 ;      CG321      CG321      CG321       HGA2
   34    35    36    76	 9 ;      CG321      CG321      CG321       HGA2
   74    35    36    20	 9 ;       HGA2      CG321      CG321     CG2R52
   74    35    36    77	 9 ;       HGA2      CG321      CG321       HGA2
   74    35    36    76	 9 ;       HGA2      CG321      CG321       HGA2
   75    35    36    20	 9 ;       HGA2      CG321      CG321     CG2R52
   75    35    36    77	 9 ;       HGA2      CG321      CG321       HGA2
   75    35    36    76	 9 ;       HGA2      CG321      CG321       HGA2

