;
;	File 'topol.top' was generated
;	By user: csirihbt (1000)
;	On host: csir-ihbt
;	At date: Tue Apr 11 16:02:43 2023
;
;	This is a standalone topology file
;
;	Created by:
;	                    :-) GROMACS - gmx pdb2gmx, 2020.5 (-:
;	
;	Executable:   /usr/local/gromacs/bin/gmx
;	Data prefix:  /usr/local/gromacs
;	Working dir:  /home/csirihbt/Downloads/3DYN_INHIBITORS/SMD/3DYN_4Y86_49D
;	Command line:
;	  gmx pdb2gmx -f clear.pdb -ignh -ter -o complex.gro -missing
;	Force field was read from current directory or a relative path - path added.
;

; Include forcefield parameters
#include "./charmm36-jul2022.ff/forcefield.itp"


; Include ligand parameters
#include "jz4.prm"

; Include chain topologies
#include "topol_Protein_chain_A.itp"
#include "topol_Ion_chain_A2.itp"


; Include ligand topology
#include "jz4.itp"

; Include water topology
#include "./charmm36-jul2022.ff/tip3p.itp"

#ifdef POSRES_WATER
; Position restraint for each water oxygen
[ position_restraints ]
;  i funct       fcx        fcy        fcz
   1    1       1000       1000       1000
#endif

; Include topology for ions
#include "./charmm36-jul2022.ff/ions.itp"

[ system ]
; Name
Protein in water

[ molecules ]
; Compound        #mols
Protein_chain_A     1
Ion_chain_A2        1
JZ4		    1
SOL         136840
NA               272
CL               258
