; Created by cgenff_charmm2gmx.py

[ moleculetype ]
; Name			   nrexcl
JZ4				 3

[ atoms ]
;	 nr		  type	resnr residue  atom   cgnr	   charge		mass  typeB    chargeB		massB
; residue	 1 JZ4 rtp JZ4 q	qsum
     1      CLGR1      1    JZ4    CL1      1     -0.201     35.453   ;
     2      OG2D4      1    JZ4     O2      2     -0.515     15.999   ;
     3     NG2R51      1    JZ4     N3      3      0.513     14.007   ;
     4     NG2R50      1    JZ4     N4      4     -0.590     14.007   ;
     5     NG2R62      1    JZ4     N5      5     -0.670     14.007   ;
     6     NG2R61      1    JZ4     N6      6     -0.416     14.007   ;
     7      NG311      1    JZ4     N7      7     -0.387     14.007   ;
     8     CG3C51      1    JZ4     C8      8     -0.174     12.011   ;
     9     CG3C52      1    JZ4     C9      9     -0.184     12.011   ;
    10     CG3C52      1    JZ4    C10     10     -0.184     12.011   ;
    11     CG3C52      1    JZ4    C11     11     -0.181     12.011   ;
    12     CG3C52      1    JZ4    C12     12     -0.181     12.011   ;
    13     CG2RC0      1    JZ4    C13     13      0.590     12.011   ;
    14     CG2RC0      1    JZ4    C14     14     -0.519     12.011   ;
    15     CG2R52      1    JZ4    C15     15      0.171     12.011   ;
    16     CG2R63      1    JZ4    C16     16      0.365     12.011   ;
    17     CG2R64      1    JZ4    C17     17      0.689     12.011   ;
    18      CG311      1    JZ4    C18     18      0.049     12.011   ;
    19     CG2R61      1    JZ4    C19     19     -0.056     12.011   ;
    20      CG331      1    JZ4    C20     20     -0.265     12.011   ;
    21     CG2R61      1    JZ4    C21     21     -0.105     12.011   ;
    22     CG2R61      1    JZ4    C22     22     -0.105     12.011   ;
    23     CG2R61      1    JZ4    C23     23     -0.103     12.011   ;
    24     CG2R61      1    JZ4    C24     24     -0.103     12.011   ;
    25     CG2R61      1    JZ4    C25     25      0.055     12.011   ;
    26       HGA1      1    JZ4    H26     26      0.090      1.008   ;
    27       HGA2      1    JZ4    H27     27      0.090      1.008   ;
    28       HGA2      1    JZ4    H28     28      0.090      1.008   ;
    29       HGA2      1    JZ4    H29     29      0.090      1.008   ;
    30       HGA2      1    JZ4    H30     30      0.090      1.008   ;
    31       HGA2      1    JZ4    H31     31      0.090      1.008   ;
    32       HGA2      1    JZ4    H32     32      0.090      1.008   ;
    33       HGA2      1    JZ4    H33     33      0.090      1.008   ;
    34       HGA2      1    JZ4    H34     34      0.090      1.008   ;
    35      HGR52      1    JZ4    H35     35      0.091      1.008   ;
    36       HGA1      1    JZ4    H36     36      0.090      1.008   ;
    37       HGP1      1    JZ4    H37     37      0.288      1.008   ;
    38     HGPAM1      1    JZ4    H38     38      0.378      1.008   ;
    39       HGA3      1    JZ4    H39     39      0.090      1.008   ;
    40       HGA3      1    JZ4    H40     40      0.090      1.008   ;
    41       HGA3      1    JZ4    H41     41      0.090      1.008   ;
    42      HGR61      1    JZ4    H42     42      0.115      1.008   ;
    43      HGR61      1    JZ4    H43     43      0.115      1.008   ;
    44      HGR62      1    JZ4    H44     44      0.150      1.008   ;
    45      HGR62      1    JZ4    H45     45      0.150      1.008   ;
    46        LPH      1    JZ4    LP1     46      0.050      0.000   ;

[ bonds ]
;	ai	  aj funct			  c0			c1			  c2			c3
    1    25	 1 ;       CLGR1     CG2R61
    2    16	 1 ;       OG2D4     CG2R63
    3     8	 1 ;      NG2R51     CG3C51
    3     4	 1 ;      NG2R51     NG2R50
    3    13	 1 ;      NG2R51     CG2RC0
    4    15	 1 ;      NG2R50     CG2R52
    5    13	 1 ;      NG2R62     CG2RC0
    5    17	 1 ;      NG2R62     CG2R64
    6    16	 1 ;      NG2R61     CG2R63
    6    17	 1 ;      NG2R61     CG2R64
    6    37	 1 ;      NG2R61       HGP1
    7    17	 1 ;       NG311     CG2R64
    7    38	 1 ;       NG311     HGPAM1
    7    18	 1 ;       NG311      CG311
    8     9	 1 ;      CG3C51     CG3C52
    8    26	 1 ;      CG3C51       HGA1
    8    10	 1 ;      CG3C51     CG3C52
    9    11	 1 ;      CG3C52     CG3C52
    9    27	 1 ;      CG3C52       HGA2
    9    28	 1 ;      CG3C52       HGA2
   10    12	 1 ;      CG3C52     CG3C52
   10    29	 1 ;      CG3C52       HGA2
   10    30	 1 ;      CG3C52       HGA2
   11    31	 1 ;      CG3C52       HGA2
   11    32	 1 ;      CG3C52       HGA2
   11    12	 1 ;      CG3C52     CG3C52
   12    33	 1 ;      CG3C52       HGA2
   12    34	 1 ;      CG3C52       HGA2
   13    14	 1 ;      CG2RC0     CG2RC0
   14    15	 1 ;      CG2RC0     CG2R52
   14    16	 1 ;      CG2RC0     CG2R63
   15    35	 1 ;      CG2R52      HGR52
   18    20	 1 ;       CG311      CG331
   18    36	 1 ;       CG311       HGA1
   18    19	 1 ;       CG311     CG2R61
   19    22	 1 ;      CG2R61     CG2R61
   19    21	 1 ;      CG2R61     CG2R61
   20    39	 1 ;       CG331       HGA3
   20    40	 1 ;       CG331       HGA3
   20    41	 1 ;       CG331       HGA3
   21    42	 1 ;      CG2R61      HGR61
   21    23	 1 ;      CG2R61     CG2R61
   22    43	 1 ;      CG2R61      HGR61
   22    24	 1 ;      CG2R61     CG2R61
   23    25	 1 ;      CG2R61     CG2R61
   23    44	 1 ;      CG2R61      HGR62
   24    45	 1 ;      CG2R61      HGR62
   24    25	 1 ;      CG2R61     CG2R61

[ pairs ]
;	ai	  aj funct			  c0			c1			  c2			c3
    1    21	 1
   46    21	 1
    1    44	 1
   46    44	 1
    1    22	 1
   46    22	 1
    1    45	 1
   46    45	 1
    2    17	 1
    2    37	 1
    2    13	 1
    2    15	 1
    3    35	 1
    3    17	 1
    3    11	 1
    3    27	 1
    3    28	 1
    3    12	 1
    3    29	 1
    3    30	 1
    3    16	 1
    4     9	 1
    4    26	 1
    4    10	 1
    4     5	 1
    4    16	 1
    5     8	 1
    5    16	 1
    5    37	 1
    5    38	 1
    5    18	 1
    5    15	 1
    6    13	 1
    6    38	 1
    6    18	 1
    6    15	 1
    7    13	 1
    7    16	 1
    7    37	 1
    7    39	 1
    7    40	 1
    7    41	 1
    7    22	 1
    7    21	 1
    8    15	 1
    8    14	 1
    8    31	 1
    8    32	 1
    8    33	 1
    8    34	 1
    9    13	 1
    9    29	 1
    9    30	 1
    9    33	 1
    9    34	 1
   10    13	 1
   10    27	 1
   10    28	 1
   10    31	 1
   10    32	 1
   11    26	 1
   11    29	 1
   11    30	 1
   12    26	 1
   12    27	 1
   12    28	 1
   13    26	 1
   13    35	 1
   14    17	 1
   14    37	 1
   16    35	 1
   17    20	 1
   17    36	 1
   17    19	 1
   18    43	 1
   18    24	 1
   18    42	 1
   18    23	 1
   19    38	 1
   19    39	 1
   19    40	 1
   19    41	 1
   19    25	 1
   19    44	 1
   19    45	 1
   20    38	 1
   20    22	 1
   20    21	 1
   21    36	 1
   21    43	 1
   21    24	 1
   22    36	 1
   22    42	 1
   22    23	 1
   23    45	 1
   24    44	 1
   25    42	 1
   25    43	 1
   26    27	 1
   26    28	 1
   26    29	 1
   26    30	 1
   27    31	 1
   27    32	 1
   28    31	 1
   28    32	 1
   29    33	 1
   29    34	 1
   30    33	 1
   30    34	 1
   31    33	 1
   31    34	 1
   32    33	 1
   32    34	 1
   36    38	 1
   36    39	 1
   36    40	 1
   36    41	 1
   42    44	 1
   43    45	 1

[ angles ]
;	ai	  aj	ak funct			c0			  c1			c2			  c3
    8     3     4	5 ;     CG3C51     NG2R51     NG2R50
    8     3    13	5 ;     CG3C51     NG2R51     CG2RC0
    4     3    13	5 ;     NG2R50     NG2R51     CG2RC0
    3     4    15	5 ;     NG2R51     NG2R50     CG2R52
   13     5    17	5 ;     CG2RC0     NG2R62     CG2R64
   16     6    17	5 ;     CG2R63     NG2R61     CG2R64
   16     6    37	5 ;     CG2R63     NG2R61       HGP1
   17     6    37	5 ;     CG2R64     NG2R61       HGP1
   17     7    38	5 ;     CG2R64      NG311     HGPAM1
   17     7    18	5 ;     CG2R64      NG311      CG311
   38     7    18	5 ;     HGPAM1      NG311      CG311
    3     8     9	5 ;     NG2R51     CG3C51     CG3C52
    3     8    26	5 ;     NG2R51     CG3C51       HGA1
    3     8    10	5 ;     NG2R51     CG3C51     CG3C52
    9     8    26	5 ;     CG3C52     CG3C51       HGA1
    9     8    10	5 ;     CG3C52     CG3C51     CG3C52
   26     8    10	5 ;       HGA1     CG3C51     CG3C52
    8     9    11	5 ;     CG3C51     CG3C52     CG3C52
    8     9    27	5 ;     CG3C51     CG3C52       HGA2
    8     9    28	5 ;     CG3C51     CG3C52       HGA2
   11     9    27	5 ;     CG3C52     CG3C52       HGA2
   11     9    28	5 ;     CG3C52     CG3C52       HGA2
   27     9    28	5 ;       HGA2     CG3C52       HGA2
    8    10    12	5 ;     CG3C51     CG3C52     CG3C52
    8    10    29	5 ;     CG3C51     CG3C52       HGA2
    8    10    30	5 ;     CG3C51     CG3C52       HGA2
   12    10    29	5 ;     CG3C52     CG3C52       HGA2
   12    10    30	5 ;     CG3C52     CG3C52       HGA2
   29    10    30	5 ;       HGA2     CG3C52       HGA2
    9    11    31	5 ;     CG3C52     CG3C52       HGA2
    9    11    32	5 ;     CG3C52     CG3C52       HGA2
    9    11    12	5 ;     CG3C52     CG3C52     CG3C52
   31    11    32	5 ;       HGA2     CG3C52       HGA2
   31    11    12	5 ;       HGA2     CG3C52     CG3C52
   32    11    12	5 ;       HGA2     CG3C52     CG3C52
   10    12    11	5 ;     CG3C52     CG3C52     CG3C52
   10    12    33	5 ;     CG3C52     CG3C52       HGA2
   10    12    34	5 ;     CG3C52     CG3C52       HGA2
   11    12    33	5 ;     CG3C52     CG3C52       HGA2
   11    12    34	5 ;     CG3C52     CG3C52       HGA2
   33    12    34	5 ;       HGA2     CG3C52       HGA2
    3    13     5	5 ;     NG2R51     CG2RC0     NG2R62
    3    13    14	5 ;     NG2R51     CG2RC0     CG2RC0
    5    13    14	5 ;     NG2R62     CG2RC0     CG2RC0
   13    14    15	5 ;     CG2RC0     CG2RC0     CG2R52
   13    14    16	5 ;     CG2RC0     CG2RC0     CG2R63
   15    14    16	5 ;     CG2R52     CG2RC0     CG2R63
    4    15    14	5 ;     NG2R50     CG2R52     CG2RC0
    4    15    35	5 ;     NG2R50     CG2R52      HGR52
   14    15    35	5 ;     CG2RC0     CG2R52      HGR52
    2    16     6	5 ;      OG2D4     CG2R63     NG2R61
    2    16    14	5 ;      OG2D4     CG2R63     CG2RC0
    6    16    14	5 ;     NG2R61     CG2R63     CG2RC0
    5    17     6	5 ;     NG2R62     CG2R64     NG2R61
    5    17     7	5 ;     NG2R62     CG2R64      NG311
    6    17     7	5 ;     NG2R61     CG2R64      NG311
    7    18    20	5 ;      NG311      CG311      CG331
    7    18    36	5 ;      NG311      CG311       HGA1
    7    18    19	5 ;      NG311      CG311     CG2R61
   20    18    36	5 ;      CG331      CG311       HGA1
   20    18    19	5 ;      CG331      CG311     CG2R61
   36    18    19	5 ;       HGA1      CG311     CG2R61
   18    19    22	5 ;      CG311     CG2R61     CG2R61
   18    19    21	5 ;      CG311     CG2R61     CG2R61
   22    19    21	5 ;     CG2R61     CG2R61     CG2R61
   18    20    39	5 ;      CG311      CG331       HGA3
   18    20    40	5 ;      CG311      CG331       HGA3
   18    20    41	5 ;      CG311      CG331       HGA3
   39    20    40	5 ;       HGA3      CG331       HGA3
   39    20    41	5 ;       HGA3      CG331       HGA3
   40    20    41	5 ;       HGA3      CG331       HGA3
   19    21    42	5 ;     CG2R61     CG2R61      HGR61
   19    21    23	5 ;     CG2R61     CG2R61     CG2R61
   42    21    23	5 ;      HGR61     CG2R61     CG2R61
   19    22    43	5 ;     CG2R61     CG2R61      HGR61
   19    22    24	5 ;     CG2R61     CG2R61     CG2R61
   43    22    24	5 ;      HGR61     CG2R61     CG2R61
   21    23    25	5 ;     CG2R61     CG2R61     CG2R61
   21    23    44	5 ;     CG2R61     CG2R61      HGR62
   25    23    44	5 ;     CG2R61     CG2R61      HGR62
   22    24    45	5 ;     CG2R61     CG2R61      HGR62
   22    24    25	5 ;     CG2R61     CG2R61     CG2R61
   45    24    25	5 ;      HGR62     CG2R61     CG2R61
    1    25    23	5 ;      CLGR1     CG2R61     CG2R61
    1    25    24	5 ;      CLGR1     CG2R61     CG2R61
   23    25    24	5 ;     CG2R61     CG2R61     CG2R61

[ dihedrals ]
;	ai	  aj	ak	  al funct			  c0			c1			  c2			c3			  c4			c5
    4     3     8     9	 9 ;     NG2R50     NG2R51     CG3C51     CG3C52
    4     3     8    26	 9 ;     NG2R50     NG2R51     CG3C51       HGA1
    4     3     8    10	 9 ;     NG2R50     NG2R51     CG3C51     CG3C52
   13     3     8     9	 9 ;     CG2RC0     NG2R51     CG3C51     CG3C52
   13     3     8    26	 9 ;     CG2RC0     NG2R51     CG3C51       HGA1
   13     3     8    10	 9 ;     CG2RC0     NG2R51     CG3C51     CG3C52
    8     3     4    15	 9 ;     CG3C51     NG2R51     NG2R50     CG2R52
   13     3     4    15	 9 ;     CG2RC0     NG2R51     NG2R50     CG2R52
    8     3    13     5	 9 ;     CG3C51     NG2R51     CG2RC0     NG2R62
    8     3    13    14	 9 ;     CG3C51     NG2R51     CG2RC0     CG2RC0
    4     3    13     5	 9 ;     NG2R50     NG2R51     CG2RC0     NG2R62
    4     3    13    14	 9 ;     NG2R50     NG2R51     CG2RC0     CG2RC0
    3     4    15    14	 9 ;     NG2R51     NG2R50     CG2R52     CG2RC0
    3     4    15    35	 9 ;     NG2R51     NG2R50     CG2R52      HGR52
   17     5    13     3	 9 ;     CG2R64     NG2R62     CG2RC0     NG2R51
   17     5    13    14	 9 ;     CG2R64     NG2R62     CG2RC0     CG2RC0
   13     5    17     6	 9 ;     CG2RC0     NG2R62     CG2R64     NG2R61
   13     5    17     7	 9 ;     CG2RC0     NG2R62     CG2R64      NG311
   17     6    16     2	 9 ;     CG2R64     NG2R61     CG2R63      OG2D4
   17     6    16    14	 9 ;     CG2R64     NG2R61     CG2R63     CG2RC0
   37     6    16     2	 9 ;       HGP1     NG2R61     CG2R63      OG2D4
   37     6    16    14	 9 ;       HGP1     NG2R61     CG2R63     CG2RC0
   16     6    17     5	 9 ;     CG2R63     NG2R61     CG2R64     NG2R62
   16     6    17     7	 9 ;     CG2R63     NG2R61     CG2R64      NG311
   37     6    17     5	 9 ;       HGP1     NG2R61     CG2R64     NG2R62
   37     6    17     7	 9 ;       HGP1     NG2R61     CG2R64      NG311
   38     7    17     5	 9 ;     HGPAM1      NG311     CG2R64     NG2R62
   38     7    17     6	 9 ;     HGPAM1      NG311     CG2R64     NG2R61
   18     7    17     5	 9 ;      CG311      NG311     CG2R64     NG2R62
   18     7    17     6	 9 ;      CG311      NG311     CG2R64     NG2R61
   17     7    18    20	 9 ;     CG2R64      NG311      CG311      CG331
   17     7    18    36	 9 ;     CG2R64      NG311      CG311       HGA1
   17     7    18    19	 9 ;     CG2R64      NG311      CG311     CG2R61
   38     7    18    20	 9 ;     HGPAM1      NG311      CG311      CG331
   38     7    18    36	 9 ;     HGPAM1      NG311      CG311       HGA1
   38     7    18    19	 9 ;     HGPAM1      NG311      CG311     CG2R61
    3     8     9    11	 9 ;     NG2R51     CG3C51     CG3C52     CG3C52
    3     8     9    27	 9 ;     NG2R51     CG3C51     CG3C52       HGA2
    3     8     9    28	 9 ;     NG2R51     CG3C51     CG3C52       HGA2
   26     8     9    11	 9 ;       HGA1     CG3C51     CG3C52     CG3C52
   26     8     9    27	 9 ;       HGA1     CG3C51     CG3C52       HGA2
   26     8     9    28	 9 ;       HGA1     CG3C51     CG3C52       HGA2
   10     8     9    11	 9 ;     CG3C52     CG3C51     CG3C52     CG3C52
   10     8     9    27	 9 ;     CG3C52     CG3C51     CG3C52       HGA2
   10     8     9    28	 9 ;     CG3C52     CG3C51     CG3C52       HGA2
    3     8    10    12	 9 ;     NG2R51     CG3C51     CG3C52     CG3C52
    3     8    10    29	 9 ;     NG2R51     CG3C51     CG3C52       HGA2
    3     8    10    30	 9 ;     NG2R51     CG3C51     CG3C52       HGA2
    9     8    10    12	 9 ;     CG3C52     CG3C51     CG3C52     CG3C52
    9     8    10    29	 9 ;     CG3C52     CG3C51     CG3C52       HGA2
    9     8    10    30	 9 ;     CG3C52     CG3C51     CG3C52       HGA2
   26     8    10    12	 9 ;       HGA1     CG3C51     CG3C52     CG3C52
   26     8    10    29	 9 ;       HGA1     CG3C51     CG3C52       HGA2
   26     8    10    30	 9 ;       HGA1     CG3C51     CG3C52       HGA2
    8     9    11    31	 9 ;     CG3C51     CG3C52     CG3C52       HGA2
    8     9    11    32	 9 ;     CG3C51     CG3C52     CG3C52       HGA2
    8     9    11    12	 9 ;     CG3C51     CG3C52     CG3C52     CG3C52
   27     9    11    31	 9 ;       HGA2     CG3C52     CG3C52       HGA2
   27     9    11    32	 9 ;       HGA2     CG3C52     CG3C52       HGA2
   27     9    11    12	 9 ;       HGA2     CG3C52     CG3C52     CG3C52
   28     9    11    31	 9 ;       HGA2     CG3C52     CG3C52       HGA2
   28     9    11    32	 9 ;       HGA2     CG3C52     CG3C52       HGA2
   28     9    11    12	 9 ;       HGA2     CG3C52     CG3C52     CG3C52
    8    10    12    11	 9 ;     CG3C51     CG3C52     CG3C52     CG3C52
    8    10    12    33	 9 ;     CG3C51     CG3C52     CG3C52       HGA2
    8    10    12    34	 9 ;     CG3C51     CG3C52     CG3C52       HGA2
   29    10    12    11	 9 ;       HGA2     CG3C52     CG3C52     CG3C52
   29    10    12    33	 9 ;       HGA2     CG3C52     CG3C52       HGA2
   29    10    12    34	 9 ;       HGA2     CG3C52     CG3C52       HGA2
   30    10    12    11	 9 ;       HGA2     CG3C52     CG3C52     CG3C52
   30    10    12    33	 9 ;       HGA2     CG3C52     CG3C52       HGA2
   30    10    12    34	 9 ;       HGA2     CG3C52     CG3C52       HGA2
    9    11    12    10	 9 ;     CG3C52     CG3C52     CG3C52     CG3C52
    9    11    12    33	 9 ;     CG3C52     CG3C52     CG3C52       HGA2
    9    11    12    34	 9 ;     CG3C52     CG3C52     CG3C52       HGA2
   31    11    12    10	 9 ;       HGA2     CG3C52     CG3C52     CG3C52
   31    11    12    33	 9 ;       HGA2     CG3C52     CG3C52       HGA2
   31    11    12    34	 9 ;       HGA2     CG3C52     CG3C52       HGA2
   32    11    12    10	 9 ;       HGA2     CG3C52     CG3C52     CG3C52
   32    11    12    33	 9 ;       HGA2     CG3C52     CG3C52       HGA2
   32    11    12    34	 9 ;       HGA2     CG3C52     CG3C52       HGA2
    3    13    14    15	 9 ;     NG2R51     CG2RC0     CG2RC0     CG2R52
    3    13    14    16	 9 ;     NG2R51     CG2RC0     CG2RC0     CG2R63
    5    13    14    15	 9 ;     NG2R62     CG2RC0     CG2RC0     CG2R52
    5    13    14    16	 9 ;     NG2R62     CG2RC0     CG2RC0     CG2R63
   13    14    15     4	 9 ;     CG2RC0     CG2RC0     CG2R52     NG2R50
   13    14    15    35	 9 ;     CG2RC0     CG2RC0     CG2R52      HGR52
   16    14    15     4	 9 ;     CG2R63     CG2RC0     CG2R52     NG2R50
   16    14    15    35	 9 ;     CG2R63     CG2RC0     CG2R52      HGR52
   13    14    16     2	 9 ;     CG2RC0     CG2RC0     CG2R63      OG2D4
   13    14    16     6	 9 ;     CG2RC0     CG2RC0     CG2R63     NG2R61
   15    14    16     2	 9 ;     CG2R52     CG2RC0     CG2R63      OG2D4
   15    14    16     6	 9 ;     CG2R52     CG2RC0     CG2R63     NG2R61
    7    18    20    39	 9 ;      NG311      CG311      CG331       HGA3
    7    18    20    40	 9 ;      NG311      CG311      CG331       HGA3
    7    18    20    41	 9 ;      NG311      CG311      CG331       HGA3
   36    18    20    39	 9 ;       HGA1      CG311      CG331       HGA3
   36    18    20    40	 9 ;       HGA1      CG311      CG331       HGA3
   36    18    20    41	 9 ;       HGA1      CG311      CG331       HGA3
   19    18    20    39	 9 ;     CG2R61      CG311      CG331       HGA3
   19    18    20    40	 9 ;     CG2R61      CG311      CG331       HGA3
   19    18    20    41	 9 ;     CG2R61      CG311      CG331       HGA3
    7    18    19    22	 9 ;      NG311      CG311     CG2R61     CG2R61
    7    18    19    21	 9 ;      NG311      CG311     CG2R61     CG2R61
   20    18    19    22	 9 ;      CG331      CG311     CG2R61     CG2R61
   20    18    19    21	 9 ;      CG331      CG311     CG2R61     CG2R61
   36    18    19    22	 9 ;       HGA1      CG311     CG2R61     CG2R61
   36    18    19    21	 9 ;       HGA1      CG311     CG2R61     CG2R61
   18    19    22    43	 9 ;      CG311     CG2R61     CG2R61      HGR61
   18    19    22    24	 9 ;      CG311     CG2R61     CG2R61     CG2R61
   21    19    22    43	 9 ;     CG2R61     CG2R61     CG2R61      HGR61
   21    19    22    24	 9 ;     CG2R61     CG2R61     CG2R61     CG2R61
   18    19    21    42	 9 ;      CG311     CG2R61     CG2R61      HGR61
   18    19    21    23	 9 ;      CG311     CG2R61     CG2R61     CG2R61
   22    19    21    42	 9 ;     CG2R61     CG2R61     CG2R61      HGR61
   22    19    21    23	 9 ;     CG2R61     CG2R61     CG2R61     CG2R61
   19    21    23    25	 9 ;     CG2R61     CG2R61     CG2R61     CG2R61
   19    21    23    44	 9 ;     CG2R61     CG2R61     CG2R61      HGR62
   42    21    23    25	 9 ;      HGR61     CG2R61     CG2R61     CG2R61
   42    21    23    44	 9 ;      HGR61     CG2R61     CG2R61      HGR62
   19    22    24    45	 9 ;     CG2R61     CG2R61     CG2R61      HGR62
   19    22    24    25	 9 ;     CG2R61     CG2R61     CG2R61     CG2R61
   43    22    24    45	 9 ;      HGR61     CG2R61     CG2R61      HGR62
   43    22    24    25	 9 ;      HGR61     CG2R61     CG2R61     CG2R61
   21    23    25     1	 9 ;     CG2R61     CG2R61     CG2R61      CLGR1
   21    23    25    24	 9 ;     CG2R61     CG2R61     CG2R61     CG2R61
   44    23    25     1	 9 ;      HGR62     CG2R61     CG2R61      CLGR1
   44    23    25    24	 9 ;      HGR62     CG2R61     CG2R61     CG2R61
   22    24    25     1	 9 ;     CG2R61     CG2R61     CG2R61      CLGR1
   22    24    25    23	 9 ;     CG2R61     CG2R61     CG2R61     CG2R61
   45    24    25     1	 9 ;      HGR62     CG2R61     CG2R61      CLGR1
   45    24    25    23	 9 ;      HGR62     CG2R61     CG2R61     CG2R61

[ dihedrals ]
;	ai	  aj	ak	  al funct			  c0			c1			  c2			c3
   16    14     6     2	 2
   17     6     5     7	 2

[ virtual_sites2 ]
; Site   from				funct a
   46     1    25     2   -0.164

[ exclusions ]
;	ai	  aj
    1    46	 1
   46    25	 1
   46    23	 1
   46    24	 1
   46    21	 1
   46    44	 1
   46    22	 1
   46    45	 1

