;
;	File 'topol.top' was generated
;	By user: user (1000)
;	On host: user
;	At date: Thu Mar 20 09:45:33 2025
;
;	This is a standalone topology file
;
;	Created by:
;	                    :-) GROMACS - gmx pdb2gmx, 2020.5 (-:
;	
;	Executable:   /usr/local/gromacs/bin/gmx
;	Data prefix:  /usr/local/gromacs
;	Working dir:  /home/user/Desktop/3DYN_NEW/3DYN-AMKPD204
;	Command line:
;	  gmx pdb2gmx -f clear.pdb -o 3HTB_processed.gro -ter -ignh -missing
;	Force field was read from current directory or a relative path - path added.
;

; Include forcefield parameters
#include "./charmm36-jul2022.ff/forcefield.itp"

; Include ligand parameters
#include "jz4.prm"

; Include chain topologies
#include "topol_Protein_chain_A.itp"
#include "topol_Ion_chain_A2.itp"

; Include water topology
#include "./charmm36-jul2022.ff/tip3p.itp"


; Include ligand topology
#include "jz4.itp"


#ifdef POSRES_WATER
; Position restraint for each water oxygen
[ position_restraints ]
;  i funct       fcx        fcy        fcz
   1    1       1000       1000       1000
#endif

; Include topology for ions
#include "./charmm36-jul2022.ff/ions.itp"

[ system ]
; Name
Protein in water

[ molecules ]
; Compound        #mols
Protein_chain_A     1
Ion_chain_A2        1
JZ4		     1
SOL         22893
NA               13

[ intermolecular_interactions ]
[ bonds ]
;    ai   aj    type  bA         kA       bB    kB
  5356  4537    6     0.828      0.0    0.828   4184.00
[ angles ]
;   ai    aj    ak    type    thA      fcA      thB       fcB
  5357  5356  4537       1   73.020    0.0   73.020     41.84
  5356  4537  4553       1   109.247    0.0   109.247     41.84
[ dihedrals ]
;   ai    aj    ak    al  type    phiA      fcA    phiB      fcB
  5358  5357  5356  4537     2    -62.955    0.0    -62.955    41.84
  5357  5356  4537  4553     2    114.707    0.0    114.707    41.84
  5356  4537  4553  4555     2    79.335    0.0    79.335    41.84
