; Created by cgenff_charmm2gmx.py

[ moleculetype ]
; Name			   nrexcl
JZ4				 3

[ atoms ]
;	 nr		  type	resnr residue  atom   cgnr	   charge		mass  typeB    chargeB		massB
; residue	 1 JZ4 rtp JZ4 q	qsum
     1     CG2R61      1    JZ4     C1      1     -0.114     12.011   ;
     2     CG2R61      1    JZ4     C2      2      0.028     12.011   ;
     3     CG2R61      1    JZ4     C3      3     -0.125     12.011   ;
     4     CG2R61      1    JZ4     C4      4      0.062     12.011   ;
     5     CG2R61      1    JZ4     C5      5      0.016     12.011   ;
     6     CG2R61      1    JZ4     C6      6     -0.133     12.011   ;
     7      CG301      1    JZ4     C7      7     -0.056     12.011   ;
     8      CG321      1    JZ4     C8      8     -0.199     12.011   ;
     9      CG321      1    JZ4     C9      9     -0.168     12.011   ;
    10      CG311      1    JZ4    C10     10     -0.110     12.011   ;
    11      CG311      1    JZ4    C11     11     -0.134     12.011   ;
    12      CG331      1    JZ4    C12     12     -0.264     12.011   ;
    13      CG331      1    JZ4    C13     13     -0.271     12.011   ;
    14      CG331      1    JZ4    C14     14     -0.271     12.011   ;
    15      CG311      1    JZ4    C15     15      0.428     12.011   ;
    16     CG2DC1      1    JZ4    C16     16     -0.330     12.011   ;
    17     CG2R51      1    JZ4    C17     17      0.061     12.011   ;
    18     NG3C51      1    JZ4    N18     18     -0.242     14.007   ;
    19      CG321      1    JZ4    C19     19     -0.008     12.011   ;
    20     CG3C51      1    JZ4    C20     20     -0.205     12.011   ;
    21     NG3C51      1    JZ4    N21     21     -0.542     14.007   ;
    22     NG3C51      1    JZ4    N22     22     -0.307     14.007   ;
    23     CG2R61      1    JZ4    C23     23      0.171     12.011   ;
    24     CG2R61      1    JZ4    C24     24      0.013     12.011   ;
    25     CG2R61      1    JZ4    C25     25     -0.118     12.011   ;
    26     CG2R61      1    JZ4    C26     26     -0.133     12.011   ;
    27     CG2R61      1    JZ4    C27     27     -0.114     12.011   ;
    28     CG2R61      1    JZ4    C28     28      0.028     12.011   ;
    29     CG2R61      1    JZ4    C29     29     -0.117     12.011   ;
    30     CG2R61      1    JZ4    C30     30     -0.152     12.011   ;
    31     CG2R61      1    JZ4    C31     31      0.028     12.011   ;
    32     CG2R61      1    JZ4    C32     32     -0.114     12.011   ;
    33     CG2R61      1    JZ4    C33     33     -0.133     12.011   ;
    34     CG2R61      1    JZ4    C34     34     -0.153     12.011   ;
    35      CG331      1    JZ4    C35     35     -0.264     12.011   ;
    36     CG2R61      1    JZ4    C36     36      0.005     12.011   ;
    37     CG2R61      1    JZ4    C37     37     -0.122     12.011   ;
    38     CG2R61      1    JZ4    C38     38     -0.107     12.011   ;
    39     CG2R61      1    JZ4    C39     39     -0.115     12.011   ;
    40     CG2R61      1    JZ4    C40     40     -0.107     12.011   ;
    41     CG2R61      1    JZ4    C41     41     -0.122     12.011   ;
    42      CG331      1    JZ4    C42     42     -0.264     12.011   ;
    43      HGR61      1    JZ4    H43     43      0.115      1.008   ;
    44      HGR61      1    JZ4    H44     44      0.115      1.008   ;
    45      HGR61      1    JZ4    H45     45      0.115      1.008   ;
    46       HGA2      1    JZ4    H46     46      0.090      1.008   ;
    47       HGA2      1    JZ4    H47     47      0.090      1.008   ;
    48       HGA2      1    JZ4    H48     48      0.090      1.008   ;
    49       HGA2      1    JZ4    H49     49      0.090      1.008   ;
    50       HGA3      1    JZ4    H50     50      0.090      1.008   ;
    51       HGA3      1    JZ4    H51     51      0.090      1.008   ;
    52       HGA3      1    JZ4    H52     52      0.090      1.008   ;
    53       HGA3      1    JZ4    H53     53      0.090      1.008   ;
    54       HGA3      1    JZ4    H54     54      0.090      1.008   ;
    55       HGA3      1    JZ4    H55     55      0.090      1.008   ;
    56       HGA3      1    JZ4    H56     56      0.090      1.008   ;
    57       HGA3      1    JZ4    H57     57      0.090      1.008   ;
    58       HGA3      1    JZ4    H58     58      0.090      1.008   ;
    59       HGA2      1    JZ4    H59     59      0.090      1.008   ;
    60       HGA2      1    JZ4    H60     60      0.090      1.008   ;
    61      HGR61      1    JZ4    H61     61      0.115      1.008   ;
    62      HGR61      1    JZ4    H62     62      0.115      1.008   ;
    63      HGR61      1    JZ4    H63     63      0.115      1.008   ;
    64      HGR61      1    JZ4    H64     64      0.115      1.008   ;
    65      HGR61      1    JZ4    H65     65      0.115      1.008   ;
    66      HGR61      1    JZ4    H66     66      0.115      1.008   ;
    67      HGR61      1    JZ4    H67     67      0.115      1.008   ;
    68      HGR61      1    JZ4    H68     68      0.115      1.008   ;
    69       HGA3      1    JZ4    H69     69      0.090      1.008   ;
    70       HGA3      1    JZ4    H70     70      0.090      1.008   ;
    71       HGA3      1    JZ4    H71     71      0.090      1.008   ;
    72      HGR61      1    JZ4    H72     72      0.115      1.008   ;
    73      HGR61      1    JZ4    H73     73      0.115      1.008   ;
    74      HGR61      1    JZ4    H74     74      0.115      1.008   ;
    75      HGR61      1    JZ4    H75     75      0.115      1.008   ;
    76      HGR61      1    JZ4    H76     76      0.115      1.008   ;
    77       HGA3      1    JZ4    H77     77      0.090      1.008   ;
    78       HGA3      1    JZ4    H78     78      0.090      1.008   ;
    79       HGA3      1    JZ4    H79     79      0.090      1.008   ;
    80       HGA1      1    JZ4     H1     80      0.090      1.008   ;
    81       HGA1      1    JZ4     H2     81      0.090      1.008   ;
    82       HGA1      1    JZ4     H3     82      0.090      1.008   ;
    83       HGA1      1    JZ4     H4     83      0.116      1.008   ;
    84       HGP1      1    JZ4     H5     84      0.331      1.008   ;
    85       HGP1      1    JZ4     H6     85      0.327      1.008   ;

[ bonds ]
;	ai	  aj funct			  c0			c1			  c2			c3
    1     6	 1 ;      CG2R61     CG2R61
    1    43	 1 ;      CG2R61      HGR61
    1     2	 1 ;      CG2R61     CG2R61
    2     3	 1 ;      CG2R61     CG2R61
    2    12	 1 ;      CG2R61      CG331
    3     4	 1 ;      CG2R61     CG2R61
    3    44	 1 ;      CG2R61      HGR61
    4     5	 1 ;      CG2R61     CG2R61
    4     7	 1 ;      CG2R61      CG301
    5    11	 1 ;      CG2R61      CG311
    5     6	 1 ;      CG2R61     CG2R61
    6    45	 1 ;      CG2R61      HGR61
    7     8	 1 ;       CG301      CG321
    7    14	 1 ;       CG301      CG331
    7    13	 1 ;       CG301      CG331
    8     9	 1 ;       CG321      CG321
    8    47	 1 ;       CG321       HGA2
    8    46	 1 ;       CG321       HGA2
    9    48	 1 ;       CG321       HGA2
    9    10	 1 ;       CG321      CG311
    9    49	 1 ;       CG321       HGA2
   10    15	 1 ;       CG311      CG311
   10    11	 1 ;       CG311      CG311
   10    80	 1 ;       CG311       HGA1
   11    19	 1 ;       CG311      CG321
   11    81	 1 ;       CG311       HGA1
   12    50	 1 ;       CG331       HGA3
   12    51	 1 ;       CG331       HGA3
   12    52	 1 ;       CG331       HGA3
   13    53	 1 ;       CG331       HGA3
   13    54	 1 ;       CG331       HGA3
   13    55	 1 ;       CG331       HGA3
   14    57	 1 ;       CG331       HGA3
   14    58	 1 ;       CG331       HGA3
   14    56	 1 ;       CG331       HGA3
   15    16	 1 ;       CG311     CG2DC1
   15    24	 1 ;       CG311     CG2R61
   15    82	 1 ;       CG311       HGA1
   16    23	 1 ;      CG2DC1     CG2R61
   16    17	 1 ;      CG2DC1     CG2R51
   17    20	 1 ;      CG2R51     CG3C51
   17    18	 1 ;      CG2R51     NG3C51
   18    22	 1 ;      NG3C51     NG3C51
   18    19	 1 ;      NG3C51      CG321
   19    60	 1 ;       CG321       HGA2
   19    59	 1 ;       CG321       HGA2
   20    36	 1 ;      CG3C51     CG2R61
   20    21	 1 ;      CG3C51     NG3C51
   20    83	 1 ;      CG3C51       HGA1
   21    22	 1 ;      NG3C51     NG3C51
   21    84	 1 ;      NG3C51       HGP1
   22    85	 1 ;      NG3C51       HGP1
   23    29	 1 ;      CG2R61     CG2R61
   23    25	 1 ;      CG2R61     CG2R61
   24    34	 1 ;      CG2R61     CG2R61
   24    30	 1 ;      CG2R61     CG2R61
   25    26	 1 ;      CG2R61     CG2R61
   25    61	 1 ;      CG2R61      HGR61
   26    27	 1 ;      CG2R61     CG2R61
   26    62	 1 ;      CG2R61      HGR61
   27    63	 1 ;      CG2R61      HGR61
   27    28	 1 ;      CG2R61     CG2R61
   28    35	 1 ;      CG2R61      CG331
   28    29	 1 ;      CG2R61     CG2R61
   29    64	 1 ;      CG2R61      HGR61
   30    31	 1 ;      CG2R61     CG2R61
   30    65	 1 ;      CG2R61      HGR61
   31    32	 1 ;      CG2R61     CG2R61
   31    42	 1 ;      CG2R61      CG331
   32    66	 1 ;      CG2R61      HGR61
   32    33	 1 ;      CG2R61     CG2R61
   33    67	 1 ;      CG2R61      HGR61
   33    34	 1 ;      CG2R61     CG2R61
   34    68	 1 ;      CG2R61      HGR61
   35    69	 1 ;       CG331       HGA3
   35    70	 1 ;       CG331       HGA3
   35    71	 1 ;       CG331       HGA3
   36    37	 1 ;      CG2R61     CG2R61
   36    41	 1 ;      CG2R61     CG2R61
   37    38	 1 ;      CG2R61     CG2R61
   37    72	 1 ;      CG2R61      HGR61
   38    39	 1 ;      CG2R61     CG2R61
   38    73	 1 ;      CG2R61      HGR61
   39    74	 1 ;      CG2R61      HGR61
   39    40	 1 ;      CG2R61     CG2R61
   40    75	 1 ;      CG2R61      HGR61
   40    41	 1 ;      CG2R61     CG2R61
   41    76	 1 ;      CG2R61      HGR61
   42    78	 1 ;       CG331       HGA3
   42    77	 1 ;       CG331       HGA3
   42    79	 1 ;       CG331       HGA3

[ pairs ]
;	ai	  aj funct			  c0			c1			  c2			c3
    1     4	 1
    1    44	 1
    1    50	 1
    1    51	 1
    1    52	 1
    1    11	 1
    2     5	 1
    2    45	 1
    2     7	 1
    3     6	 1
    3    43	 1
    3    50	 1
    3    51	 1
    3    52	 1
    3    11	 1
    3     8	 1
    3    14	 1
    3    13	 1
    4    12	 1
    4    10	 1
    4    19	 1
    4    81	 1
    4    45	 1
    4     9	 1
    4    47	 1
    4    46	 1
    4    57	 1
    4    58	 1
    4    56	 1
    4    53	 1
    4    54	 1
    4    55	 1
    5    43	 1
    5    44	 1
    5     8	 1
    5    14	 1
    5    13	 1
    5     9	 1
    5    15	 1
    5    80	 1
    5    18	 1
    5    60	 1
    5    59	 1
    6    12	 1
    6     7	 1
    6    10	 1
    6    19	 1
    6    81	 1
    7    44	 1
    7    11	 1
    7    48	 1
    7    10	 1
    7    49	 1
    8    57	 1
    8    58	 1
    8    56	 1
    8    53	 1
    8    54	 1
    8    55	 1
    8    15	 1
    8    11	 1
    8    80	 1
    9    14	 1
    9    13	 1
    9    16	 1
    9    24	 1
    9    82	 1
    9    19	 1
    9    81	 1
   10    47	 1
   10    46	 1
   10    18	 1
   10    60	 1
   10    59	 1
   10    23	 1
   10    17	 1
   10    34	 1
   10    30	 1
   11    45	 1
   11    48	 1
   11    49	 1
   11    16	 1
   11    24	 1
   11    82	 1
   11    17	 1
   11    22	 1
   12    43	 1
   12    44	 1
   13    47	 1
   13    46	 1
   13    57	 1
   13    58	 1
   13    56	 1
   14    47	 1
   14    46	 1
   14    53	 1
   14    54	 1
   14    55	 1
   15    48	 1
   15    49	 1
   15    19	 1
   15    81	 1
   15    29	 1
   15    25	 1
   15    20	 1
   15    18	 1
   15    33	 1
   15    68	 1
   15    31	 1
   15    65	 1
   16    80	 1
   16    34	 1
   16    30	 1
   16    36	 1
   16    21	 1
   16    83	 1
   16    22	 1
   16    19	 1
   16    28	 1
   16    64	 1
   16    26	 1
   16    61	 1
   17    24	 1
   17    82	 1
   17    29	 1
   17    25	 1
   17    85	 1
   17    60	 1
   17    59	 1
   17    37	 1
   17    41	 1
   17    84	 1
   18    81	 1
   18    23	 1
   18    36	 1
   18    83	 1
   18    84	 1
   19    80	 1
   19    20	 1
   19    21	 1
   19    85	 1
   20    23	 1
   20    85	 1
   20    38	 1
   20    72	 1
   20    40	 1
   20    76	 1
   21    37	 1
   21    41	 1
   22    60	 1
   22    59	 1
   22    36	 1
   22    83	 1
   23    24	 1
   23    82	 1
   23    27	 1
   23    62	 1
   23    35	 1
   24    80	 1
   24    32	 1
   24    42	 1
   24    67	 1
   25    28	 1
   25    64	 1
   25    63	 1
   26    29	 1
   26    35	 1
   27    61	 1
   27    69	 1
   27    70	 1
   27    71	 1
   27    64	 1
   28    62	 1
   29    61	 1
   29    63	 1
   29    69	 1
   29    70	 1
   29    71	 1
   30    82	 1
   30    33	 1
   30    68	 1
   30    66	 1
   30    78	 1
   30    77	 1
   30    79	 1
   31    34	 1
   31    67	 1
   32    65	 1
   32    78	 1
   32    77	 1
   32    79	 1
   32    68	 1
   33    42	 1
   34    82	 1
   34    65	 1
   34    66	 1
   35    63	 1
   35    64	 1
   36    84	 1
   36    39	 1
   36    73	 1
   36    75	 1
   37    83	 1
   37    40	 1
   37    76	 1
   37    74	 1
   38    41	 1
   38    75	 1
   39    72	 1
   39    76	 1
   40    73	 1
   41    83	 1
   41    72	 1
   41    74	 1
   42    65	 1
   42    66	 1
   43    45	 1
   46    48	 1
   46    49	 1
   47    48	 1
   47    49	 1
   48    80	 1
   49    80	 1
   59    81	 1
   60    81	 1
   61    62	 1
   62    63	 1
   66    67	 1
   67    68	 1
   72    73	 1
   73    74	 1
   74    75	 1
   75    76	 1
   80    82	 1
   80    81	 1
   83    84	 1
   84    85	 1

[ angles ]
;	ai	  aj	ak funct			c0			  c1			c2			  c3
    6     1    43	5 ;     CG2R61     CG2R61      HGR61
    6     1     2	5 ;     CG2R61     CG2R61     CG2R61
   43     1     2	5 ;      HGR61     CG2R61     CG2R61
    1     2     3	5 ;     CG2R61     CG2R61     CG2R61
    1     2    12	5 ;     CG2R61     CG2R61      CG331
    3     2    12	5 ;     CG2R61     CG2R61      CG331
    2     3     4	5 ;     CG2R61     CG2R61     CG2R61
    2     3    44	5 ;     CG2R61     CG2R61      HGR61
    4     3    44	5 ;     CG2R61     CG2R61      HGR61
    3     4     5	5 ;     CG2R61     CG2R61     CG2R61
    3     4     7	5 ;     CG2R61     CG2R61      CG301
    5     4     7	5 ;     CG2R61     CG2R61      CG301
    4     5    11	5 ;     CG2R61     CG2R61      CG311
    4     5     6	5 ;     CG2R61     CG2R61     CG2R61
   11     5     6	5 ;      CG311     CG2R61     CG2R61
    1     6     5	5 ;     CG2R61     CG2R61     CG2R61
    1     6    45	5 ;     CG2R61     CG2R61      HGR61
    5     6    45	5 ;     CG2R61     CG2R61      HGR61
    4     7     8	5 ;     CG2R61      CG301      CG321
    4     7    14	5 ;     CG2R61      CG301      CG331
    4     7    13	5 ;     CG2R61      CG301      CG331
    8     7    14	5 ;      CG321      CG301      CG331
    8     7    13	5 ;      CG321      CG301      CG331
   14     7    13	5 ;      CG331      CG301      CG331
    7     8     9	5 ;      CG301      CG321      CG321
    7     8    47	5 ;      CG301      CG321       HGA2
    7     8    46	5 ;      CG301      CG321       HGA2
    9     8    47	5 ;      CG321      CG321       HGA2
    9     8    46	5 ;      CG321      CG321       HGA2
   47     8    46	5 ;       HGA2      CG321       HGA2
    8     9    48	5 ;      CG321      CG321       HGA2
    8     9    10	5 ;      CG321      CG321      CG311
    8     9    49	5 ;      CG321      CG321       HGA2
   48     9    10	5 ;       HGA2      CG321      CG311
   48     9    49	5 ;       HGA2      CG321       HGA2
   10     9    49	5 ;      CG311      CG321       HGA2
    9    10    15	5 ;      CG321      CG311      CG311
    9    10    11	5 ;      CG321      CG311      CG311
    9    10    80	5 ;      CG321      CG311       HGA1
   15    10    11	5 ;      CG311      CG311      CG311
   15    10    80	5 ;      CG311      CG311       HGA1
   11    10    80	5 ;      CG311      CG311       HGA1
    5    11    10	5 ;     CG2R61      CG311      CG311
    5    11    19	5 ;     CG2R61      CG311      CG321
    5    11    81	5 ;     CG2R61      CG311       HGA1
   10    11    19	5 ;      CG311      CG311      CG321
   10    11    81	5 ;      CG311      CG311       HGA1
   19    11    81	5 ;      CG321      CG311       HGA1
    2    12    50	5 ;     CG2R61      CG331       HGA3
    2    12    51	5 ;     CG2R61      CG331       HGA3
    2    12    52	5 ;     CG2R61      CG331       HGA3
   50    12    51	5 ;       HGA3      CG331       HGA3
   50    12    52	5 ;       HGA3      CG331       HGA3
   51    12    52	5 ;       HGA3      CG331       HGA3
    7    13    53	5 ;      CG301      CG331       HGA3
    7    13    54	5 ;      CG301      CG331       HGA3
    7    13    55	5 ;      CG301      CG331       HGA3
   53    13    54	5 ;       HGA3      CG331       HGA3
   53    13    55	5 ;       HGA3      CG331       HGA3
   54    13    55	5 ;       HGA3      CG331       HGA3
    7    14    57	5 ;      CG301      CG331       HGA3
    7    14    58	5 ;      CG301      CG331       HGA3
    7    14    56	5 ;      CG301      CG331       HGA3
   57    14    58	5 ;       HGA3      CG331       HGA3
   57    14    56	5 ;       HGA3      CG331       HGA3
   58    14    56	5 ;       HGA3      CG331       HGA3
   10    15    16	5 ;      CG311      CG311     CG2DC1
   10    15    24	5 ;      CG311      CG311     CG2R61
   10    15    82	5 ;      CG311      CG311       HGA1
   16    15    24	5 ;     CG2DC1      CG311     CG2R61
   16    15    82	5 ;     CG2DC1      CG311       HGA1
   24    15    82	5 ;     CG2R61      CG311       HGA1
   15    16    23	5 ;      CG311     CG2DC1     CG2R61
   15    16    17	5 ;      CG311     CG2DC1     CG2R51
   23    16    17	5 ;     CG2R61     CG2DC1     CG2R51
   16    17    20	5 ;     CG2DC1     CG2R51     CG3C51
   16    17    18	5 ;     CG2DC1     CG2R51     NG3C51
   20    17    18	5 ;     CG3C51     CG2R51     NG3C51
   17    18    22	5 ;     CG2R51     NG3C51     NG3C51
   17    18    19	5 ;     CG2R51     NG3C51      CG321
   22    18    19	5 ;     NG3C51     NG3C51      CG321
   11    19    18	5 ;      CG311      CG321     NG3C51
   11    19    60	5 ;      CG311      CG321       HGA2
   11    19    59	5 ;      CG311      CG321       HGA2
   18    19    60	5 ;     NG3C51      CG321       HGA2
   18    19    59	5 ;     NG3C51      CG321       HGA2
   60    19    59	5 ;       HGA2      CG321       HGA2
   17    20    36	5 ;     CG2R51     CG3C51     CG2R61
   17    20    21	5 ;     CG2R51     CG3C51     NG3C51
   17    20    83	5 ;     CG2R51     CG3C51       HGA1
   36    20    21	5 ;     CG2R61     CG3C51     NG3C51
   36    20    83	5 ;     CG2R61     CG3C51       HGA1
   21    20    83	5 ;     NG3C51     CG3C51       HGA1
   20    21    22	5 ;     CG3C51     NG3C51     NG3C51
   20    21    84	5 ;     CG3C51     NG3C51       HGP1
   22    21    84	5 ;     NG3C51     NG3C51       HGP1
   18    22    21	5 ;     NG3C51     NG3C51     NG3C51
   18    22    85	5 ;     NG3C51     NG3C51       HGP1
   21    22    85	5 ;     NG3C51     NG3C51       HGP1
   16    23    29	5 ;     CG2DC1     CG2R61     CG2R61
   16    23    25	5 ;     CG2DC1     CG2R61     CG2R61
   29    23    25	5 ;     CG2R61     CG2R61     CG2R61
   15    24    34	5 ;      CG311     CG2R61     CG2R61
   15    24    30	5 ;      CG311     CG2R61     CG2R61
   34    24    30	5 ;     CG2R61     CG2R61     CG2R61
   23    25    26	5 ;     CG2R61     CG2R61     CG2R61
   23    25    61	5 ;     CG2R61     CG2R61      HGR61
   26    25    61	5 ;     CG2R61     CG2R61      HGR61
   25    26    27	5 ;     CG2R61     CG2R61     CG2R61
   25    26    62	5 ;     CG2R61     CG2R61      HGR61
   27    26    62	5 ;     CG2R61     CG2R61      HGR61
   26    27    63	5 ;     CG2R61     CG2R61      HGR61
   26    27    28	5 ;     CG2R61     CG2R61     CG2R61
   63    27    28	5 ;      HGR61     CG2R61     CG2R61
   27    28    35	5 ;     CG2R61     CG2R61      CG331
   27    28    29	5 ;     CG2R61     CG2R61     CG2R61
   35    28    29	5 ;      CG331     CG2R61     CG2R61
   23    29    28	5 ;     CG2R61     CG2R61     CG2R61
   23    29    64	5 ;     CG2R61     CG2R61      HGR61
   28    29    64	5 ;     CG2R61     CG2R61      HGR61
   24    30    31	5 ;     CG2R61     CG2R61     CG2R61
   24    30    65	5 ;     CG2R61     CG2R61      HGR61
   31    30    65	5 ;     CG2R61     CG2R61      HGR61
   30    31    32	5 ;     CG2R61     CG2R61     CG2R61
   30    31    42	5 ;     CG2R61     CG2R61      CG331
   32    31    42	5 ;     CG2R61     CG2R61      CG331
   31    32    66	5 ;     CG2R61     CG2R61      HGR61
   31    32    33	5 ;     CG2R61     CG2R61     CG2R61
   66    32    33	5 ;      HGR61     CG2R61     CG2R61
   32    33    67	5 ;     CG2R61     CG2R61      HGR61
   32    33    34	5 ;     CG2R61     CG2R61     CG2R61
   67    33    34	5 ;      HGR61     CG2R61     CG2R61
   24    34    33	5 ;     CG2R61     CG2R61     CG2R61
   24    34    68	5 ;     CG2R61     CG2R61      HGR61
   33    34    68	5 ;     CG2R61     CG2R61      HGR61
   28    35    69	5 ;     CG2R61      CG331       HGA3
   28    35    70	5 ;     CG2R61      CG331       HGA3
   28    35    71	5 ;     CG2R61      CG331       HGA3
   69    35    70	5 ;       HGA3      CG331       HGA3
   69    35    71	5 ;       HGA3      CG331       HGA3
   70    35    71	5 ;       HGA3      CG331       HGA3
   20    36    37	5 ;     CG3C51     CG2R61     CG2R61
   20    36    41	5 ;     CG3C51     CG2R61     CG2R61
   37    36    41	5 ;     CG2R61     CG2R61     CG2R61
   36    37    38	5 ;     CG2R61     CG2R61     CG2R61
   36    37    72	5 ;     CG2R61     CG2R61      HGR61
   38    37    72	5 ;     CG2R61     CG2R61      HGR61
   37    38    39	5 ;     CG2R61     CG2R61     CG2R61
   37    38    73	5 ;     CG2R61     CG2R61      HGR61
   39    38    73	5 ;     CG2R61     CG2R61      HGR61
   38    39    74	5 ;     CG2R61     CG2R61      HGR61
   38    39    40	5 ;     CG2R61     CG2R61     CG2R61
   74    39    40	5 ;      HGR61     CG2R61     CG2R61
   39    40    75	5 ;     CG2R61     CG2R61      HGR61
   39    40    41	5 ;     CG2R61     CG2R61     CG2R61
   75    40    41	5 ;      HGR61     CG2R61     CG2R61
   36    41    40	5 ;     CG2R61     CG2R61     CG2R61
   36    41    76	5 ;     CG2R61     CG2R61      HGR61
   40    41    76	5 ;     CG2R61     CG2R61      HGR61
   31    42    78	5 ;     CG2R61      CG331       HGA3
   31    42    77	5 ;     CG2R61      CG331       HGA3
   31    42    79	5 ;     CG2R61      CG331       HGA3
   78    42    77	5 ;       HGA3      CG331       HGA3
   78    42    79	5 ;       HGA3      CG331       HGA3
   77    42    79	5 ;       HGA3      CG331       HGA3

[ dihedrals ]
;	ai	  aj	ak	  al funct			  c0			c1			  c2			c3			  c4			c5
   43     1     6     5	 9 ;      HGR61     CG2R61     CG2R61     CG2R61
   43     1     6    45	 9 ;      HGR61     CG2R61     CG2R61      HGR61
    2     1     6     5	 9 ;     CG2R61     CG2R61     CG2R61     CG2R61
    2     1     6    45	 9 ;     CG2R61     CG2R61     CG2R61      HGR61
    6     1     2     3	 9 ;     CG2R61     CG2R61     CG2R61     CG2R61
    6     1     2    12	 9 ;     CG2R61     CG2R61     CG2R61      CG331
   43     1     2     3	 9 ;      HGR61     CG2R61     CG2R61     CG2R61
   43     1     2    12	 9 ;      HGR61     CG2R61     CG2R61      CG331
    1     2     3     4	 9 ;     CG2R61     CG2R61     CG2R61     CG2R61
    1     2     3    44	 9 ;     CG2R61     CG2R61     CG2R61      HGR61
   12     2     3     4	 9 ;      CG331     CG2R61     CG2R61     CG2R61
   12     2     3    44	 9 ;      CG331     CG2R61     CG2R61      HGR61
    1     2    12    50	 9 ;     CG2R61     CG2R61      CG331       HGA3
    1     2    12    51	 9 ;     CG2R61     CG2R61      CG331       HGA3
    1     2    12    52	 9 ;     CG2R61     CG2R61      CG331       HGA3
    3     2    12    50	 9 ;     CG2R61     CG2R61      CG331       HGA3
    3     2    12    51	 9 ;     CG2R61     CG2R61      CG331       HGA3
    3     2    12    52	 9 ;     CG2R61     CG2R61      CG331       HGA3
    2     3     4     5	 9 ;     CG2R61     CG2R61     CG2R61     CG2R61
    2     3     4     7	 9 ;     CG2R61     CG2R61     CG2R61      CG301
   44     3     4     5	 9 ;      HGR61     CG2R61     CG2R61     CG2R61
   44     3     4     7	 9 ;      HGR61     CG2R61     CG2R61      CG301
    3     4     5    11	 9 ;     CG2R61     CG2R61     CG2R61      CG311
    3     4     5     6	 9 ;     CG2R61     CG2R61     CG2R61     CG2R61
    7     4     5    11	 9 ;      CG301     CG2R61     CG2R61      CG311
    7     4     5     6	 9 ;      CG301     CG2R61     CG2R61     CG2R61
    3     4     7     8	 9 ;     CG2R61     CG2R61      CG301      CG321
    3     4     7    14	 9 ;     CG2R61     CG2R61      CG301      CG331
    3     4     7    13	 9 ;     CG2R61     CG2R61      CG301      CG331
    5     4     7     8	 9 ;     CG2R61     CG2R61      CG301      CG321
    5     4     7    14	 9 ;     CG2R61     CG2R61      CG301      CG331
    5     4     7    13	 9 ;     CG2R61     CG2R61      CG301      CG331
    4     5    11    10	 9 ;     CG2R61     CG2R61      CG311      CG311
    4     5    11    19	 9 ;     CG2R61     CG2R61      CG311      CG321
    4     5    11    81	 9 ;     CG2R61     CG2R61      CG311       HGA1
    6     5    11    10	 9 ;     CG2R61     CG2R61      CG311      CG311
    6     5    11    19	 9 ;     CG2R61     CG2R61      CG311      CG321
    6     5    11    81	 9 ;     CG2R61     CG2R61      CG311       HGA1
    4     5     6     1	 9 ;     CG2R61     CG2R61     CG2R61     CG2R61
    4     5     6    45	 9 ;     CG2R61     CG2R61     CG2R61      HGR61
   11     5     6     1	 9 ;      CG311     CG2R61     CG2R61     CG2R61
   11     5     6    45	 9 ;      CG311     CG2R61     CG2R61      HGR61
    4     7     8     9	 9 ;     CG2R61      CG301      CG321      CG321
    4     7     8    47	 9 ;     CG2R61      CG301      CG321       HGA2
    4     7     8    46	 9 ;     CG2R61      CG301      CG321       HGA2
   14     7     8     9	 9 ;      CG331      CG301      CG321      CG321
   14     7     8    47	 9 ;      CG331      CG301      CG321       HGA2
   14     7     8    46	 9 ;      CG331      CG301      CG321       HGA2
   13     7     8     9	 9 ;      CG331      CG301      CG321      CG321
   13     7     8    47	 9 ;      CG331      CG301      CG321       HGA2
   13     7     8    46	 9 ;      CG331      CG301      CG321       HGA2
    4     7    14    57	 9 ;     CG2R61      CG301      CG331       HGA3
    4     7    14    58	 9 ;     CG2R61      CG301      CG331       HGA3
    4     7    14    56	 9 ;     CG2R61      CG301      CG331       HGA3
    8     7    14    57	 9 ;      CG321      CG301      CG331       HGA3
    8     7    14    58	 9 ;      CG321      CG301      CG331       HGA3
    8     7    14    56	 9 ;      CG321      CG301      CG331       HGA3
   13     7    14    57	 9 ;      CG331      CG301      CG331       HGA3
   13     7    14    58	 9 ;      CG331      CG301      CG331       HGA3
   13     7    14    56	 9 ;      CG331      CG301      CG331       HGA3
    4     7    13    53	 9 ;     CG2R61      CG301      CG331       HGA3
    4     7    13    54	 9 ;     CG2R61      CG301      CG331       HGA3
    4     7    13    55	 9 ;     CG2R61      CG301      CG331       HGA3
    8     7    13    53	 9 ;      CG321      CG301      CG331       HGA3
    8     7    13    54	 9 ;      CG321      CG301      CG331       HGA3
    8     7    13    55	 9 ;      CG321      CG301      CG331       HGA3
   14     7    13    53	 9 ;      CG331      CG301      CG331       HGA3
   14     7    13    54	 9 ;      CG331      CG301      CG331       HGA3
   14     7    13    55	 9 ;      CG331      CG301      CG331       HGA3
    7     8     9    48	 9 ;      CG301      CG321      CG321       HGA2
    7     8     9    10	 9 ;      CG301      CG321      CG321      CG311
    7     8     9    49	 9 ;      CG301      CG321      CG321       HGA2
   47     8     9    48	 9 ;       HGA2      CG321      CG321       HGA2
   47     8     9    10	 9 ;       HGA2      CG321      CG321      CG311
   47     8     9    49	 9 ;       HGA2      CG321      CG321       HGA2
   46     8     9    48	 9 ;       HGA2      CG321      CG321       HGA2
   46     8     9    10	 9 ;       HGA2      CG321      CG321      CG311
   46     8     9    49	 9 ;       HGA2      CG321      CG321       HGA2
    8     9    10    15	 9 ;      CG321      CG321      CG311      CG311
    8     9    10    11	 9 ;      CG321      CG321      CG311      CG311
    8     9    10    80	 9 ;      CG321      CG321      CG311       HGA1
   48     9    10    15	 9 ;       HGA2      CG321      CG311      CG311
   48     9    10    11	 9 ;       HGA2      CG321      CG311      CG311
   48     9    10    80	 9 ;       HGA2      CG321      CG311       HGA1
   49     9    10    15	 9 ;       HGA2      CG321      CG311      CG311
   49     9    10    11	 9 ;       HGA2      CG321      CG311      CG311
   49     9    10    80	 9 ;       HGA2      CG321      CG311       HGA1
    9    10    15    16	 9 ;      CG321      CG311      CG311     CG2DC1
    9    10    15    24	 9 ;      CG321      CG311      CG311     CG2R61
    9    10    15    82	 9 ;      CG321      CG311      CG311       HGA1
   11    10    15    16	 9 ;      CG311      CG311      CG311     CG2DC1
   11    10    15    24	 9 ;      CG311      CG311      CG311     CG2R61
   11    10    15    82	 9 ;      CG311      CG311      CG311       HGA1
   80    10    15    16	 9 ;       HGA1      CG311      CG311     CG2DC1
   80    10    15    24	 9 ;       HGA1      CG311      CG311     CG2R61
   80    10    15    82	 9 ;       HGA1      CG311      CG311       HGA1
    9    10    11     5	 9 ;      CG321      CG311      CG311     CG2R61
    9    10    11    19	 9 ;      CG321      CG311      CG311      CG321
    9    10    11    81	 9 ;      CG321      CG311      CG311       HGA1
   15    10    11     5	 9 ;      CG311      CG311      CG311     CG2R61
   15    10    11    19	 9 ;      CG311      CG311      CG311      CG321
   15    10    11    81	 9 ;      CG311      CG311      CG311       HGA1
   80    10    11     5	 9 ;       HGA1      CG311      CG311     CG2R61
   80    10    11    19	 9 ;       HGA1      CG311      CG311      CG321
   80    10    11    81	 9 ;       HGA1      CG311      CG311       HGA1
    5    11    19    18	 9 ;     CG2R61      CG311      CG321     NG3C51
    5    11    19    60	 9 ;     CG2R61      CG311      CG321       HGA2
    5    11    19    59	 9 ;     CG2R61      CG311      CG321       HGA2
   10    11    19    18	 9 ;      CG311      CG311      CG321     NG3C51
   10    11    19    60	 9 ;      CG311      CG311      CG321       HGA2
   10    11    19    59	 9 ;      CG311      CG311      CG321       HGA2
   81    11    19    18	 9 ;       HGA1      CG311      CG321     NG3C51
   81    11    19    60	 9 ;       HGA1      CG311      CG321       HGA2
   81    11    19    59	 9 ;       HGA1      CG311      CG321       HGA2
   10    15    16    23	 9 ;      CG311      CG311     CG2DC1     CG2R61
   10    15    16    17	 9 ;      CG311      CG311     CG2DC1     CG2R51
   24    15    16    23	 9 ;     CG2R61      CG311     CG2DC1     CG2R61
   24    15    16    17	 9 ;     CG2R61      CG311     CG2DC1     CG2R51
   82    15    16    23	 9 ;       HGA1      CG311     CG2DC1     CG2R61
   82    15    16    17	 9 ;       HGA1      CG311     CG2DC1     CG2R51
   10    15    24    34	 9 ;      CG311      CG311     CG2R61     CG2R61
   10    15    24    30	 9 ;      CG311      CG311     CG2R61     CG2R61
   16    15    24    34	 9 ;     CG2DC1      CG311     CG2R61     CG2R61
   16    15    24    30	 9 ;     CG2DC1      CG311     CG2R61     CG2R61
   82    15    24    34	 9 ;       HGA1      CG311     CG2R61     CG2R61
   82    15    24    30	 9 ;       HGA1      CG311     CG2R61     CG2R61
   15    16    23    29	 9 ;      CG311     CG2DC1     CG2R61     CG2R61
   15    16    23    25	 9 ;      CG311     CG2DC1     CG2R61     CG2R61
   17    16    23    29	 9 ;     CG2R51     CG2DC1     CG2R61     CG2R61
   17    16    23    25	 9 ;     CG2R51     CG2DC1     CG2R61     CG2R61
   15    16    17    20	 9 ;      CG311     CG2DC1     CG2R51     CG3C51
   15    16    17    18	 9 ;      CG311     CG2DC1     CG2R51     NG3C51
   23    16    17    20	 9 ;     CG2R61     CG2DC1     CG2R51     CG3C51
   23    16    17    18	 9 ;     CG2R61     CG2DC1     CG2R51     NG3C51
   16    17    20    36	 9 ;     CG2DC1     CG2R51     CG3C51     CG2R61
   16    17    20    21	 9 ;     CG2DC1     CG2R51     CG3C51     NG3C51
   16    17    20    83	 9 ;     CG2DC1     CG2R51     CG3C51       HGA1
   18    17    20    36	 9 ;     NG3C51     CG2R51     CG3C51     CG2R61
   18    17    20    21	 9 ;     NG3C51     CG2R51     CG3C51     NG3C51
   18    17    20    83	 9 ;     NG3C51     CG2R51     CG3C51       HGA1
   16    17    18    22	 9 ;     CG2DC1     CG2R51     NG3C51     NG3C51
   16    17    18    19	 9 ;     CG2DC1     CG2R51     NG3C51      CG321
   20    17    18    22	 9 ;     CG3C51     CG2R51     NG3C51     NG3C51
   20    17    18    19	 9 ;     CG3C51     CG2R51     NG3C51      CG321
   17    18    22    21	 9 ;     CG2R51     NG3C51     NG3C51     NG3C51
   17    18    22    85	 9 ;     CG2R51     NG3C51     NG3C51       HGP1
   19    18    22    21	 9 ;      CG321     NG3C51     NG3C51     NG3C51
   19    18    22    85	 9 ;      CG321     NG3C51     NG3C51       HGP1
   17    18    19    11	 9 ;     CG2R51     NG3C51      CG321      CG311
   17    18    19    60	 9 ;     CG2R51     NG3C51      CG321       HGA2
   17    18    19    59	 9 ;     CG2R51     NG3C51      CG321       HGA2
   22    18    19    11	 9 ;     NG3C51     NG3C51      CG321      CG311
   22    18    19    60	 9 ;     NG3C51     NG3C51      CG321       HGA2
   22    18    19    59	 9 ;     NG3C51     NG3C51      CG321       HGA2
   17    20    36    37	 9 ;     CG2R51     CG3C51     CG2R61     CG2R61
   17    20    36    41	 9 ;     CG2R51     CG3C51     CG2R61     CG2R61
   21    20    36    37	 9 ;     NG3C51     CG3C51     CG2R61     CG2R61
   21    20    36    41	 9 ;     NG3C51     CG3C51     CG2R61     CG2R61
   83    20    36    37	 9 ;       HGA1     CG3C51     CG2R61     CG2R61
   83    20    36    41	 9 ;       HGA1     CG3C51     CG2R61     CG2R61
   17    20    21    22	 9 ;     CG2R51     CG3C51     NG3C51     NG3C51
   17    20    21    84	 9 ;     CG2R51     CG3C51     NG3C51       HGP1
   36    20    21    22	 9 ;     CG2R61     CG3C51     NG3C51     NG3C51
   36    20    21    84	 9 ;     CG2R61     CG3C51     NG3C51       HGP1
   83    20    21    22	 9 ;       HGA1     CG3C51     NG3C51     NG3C51
   83    20    21    84	 9 ;       HGA1     CG3C51     NG3C51       HGP1
   20    21    22    18	 9 ;     CG3C51     NG3C51     NG3C51     NG3C51
   20    21    22    85	 9 ;     CG3C51     NG3C51     NG3C51       HGP1
   84    21    22    18	 9 ;       HGP1     NG3C51     NG3C51     NG3C51
   84    21    22    85	 9 ;       HGP1     NG3C51     NG3C51       HGP1
   16    23    29    28	 9 ;     CG2DC1     CG2R61     CG2R61     CG2R61
   16    23    29    64	 9 ;     CG2DC1     CG2R61     CG2R61      HGR61
   25    23    29    28	 9 ;     CG2R61     CG2R61     CG2R61     CG2R61
   25    23    29    64	 9 ;     CG2R61     CG2R61     CG2R61      HGR61
   16    23    25    26	 9 ;     CG2DC1     CG2R61     CG2R61     CG2R61
   16    23    25    61	 9 ;     CG2DC1     CG2R61     CG2R61      HGR61
   29    23    25    26	 9 ;     CG2R61     CG2R61     CG2R61     CG2R61
   29    23    25    61	 9 ;     CG2R61     CG2R61     CG2R61      HGR61
   15    24    34    33	 9 ;      CG311     CG2R61     CG2R61     CG2R61
   15    24    34    68	 9 ;      CG311     CG2R61     CG2R61      HGR61
   30    24    34    33	 9 ;     CG2R61     CG2R61     CG2R61     CG2R61
   30    24    34    68	 9 ;     CG2R61     CG2R61     CG2R61      HGR61
   15    24    30    31	 9 ;      CG311     CG2R61     CG2R61     CG2R61
   15    24    30    65	 9 ;      CG311     CG2R61     CG2R61      HGR61
   34    24    30    31	 9 ;     CG2R61     CG2R61     CG2R61     CG2R61
   34    24    30    65	 9 ;     CG2R61     CG2R61     CG2R61      HGR61
   23    25    26    27	 9 ;     CG2R61     CG2R61     CG2R61     CG2R61
   23    25    26    62	 9 ;     CG2R61     CG2R61     CG2R61      HGR61
   61    25    26    27	 9 ;      HGR61     CG2R61     CG2R61     CG2R61
   61    25    26    62	 9 ;      HGR61     CG2R61     CG2R61      HGR61
   25    26    27    63	 9 ;     CG2R61     CG2R61     CG2R61      HGR61
   25    26    27    28	 9 ;     CG2R61     CG2R61     CG2R61     CG2R61
   62    26    27    63	 9 ;      HGR61     CG2R61     CG2R61      HGR61
   62    26    27    28	 9 ;      HGR61     CG2R61     CG2R61     CG2R61
   26    27    28    35	 9 ;     CG2R61     CG2R61     CG2R61      CG331
   26    27    28    29	 9 ;     CG2R61     CG2R61     CG2R61     CG2R61
   63    27    28    35	 9 ;      HGR61     CG2R61     CG2R61      CG331
   63    27    28    29	 9 ;      HGR61     CG2R61     CG2R61     CG2R61
   27    28    35    69	 9 ;     CG2R61     CG2R61      CG331       HGA3
   27    28    35    70	 9 ;     CG2R61     CG2R61      CG331       HGA3
   27    28    35    71	 9 ;     CG2R61     CG2R61      CG331       HGA3
   29    28    35    69	 9 ;     CG2R61     CG2R61      CG331       HGA3
   29    28    35    70	 9 ;     CG2R61     CG2R61      CG331       HGA3
   29    28    35    71	 9 ;     CG2R61     CG2R61      CG331       HGA3
   27    28    29    23	 9 ;     CG2R61     CG2R61     CG2R61     CG2R61
   27    28    29    64	 9 ;     CG2R61     CG2R61     CG2R61      HGR61
   35    28    29    23	 9 ;      CG331     CG2R61     CG2R61     CG2R61
   35    28    29    64	 9 ;      CG331     CG2R61     CG2R61      HGR61
   24    30    31    32	 9 ;     CG2R61     CG2R61     CG2R61     CG2R61
   24    30    31    42	 9 ;     CG2R61     CG2R61     CG2R61      CG331
   65    30    31    32	 9 ;      HGR61     CG2R61     CG2R61     CG2R61
   65    30    31    42	 9 ;      HGR61     CG2R61     CG2R61      CG331
   30    31    32    66	 9 ;     CG2R61     CG2R61     CG2R61      HGR61
   30    31    32    33	 9 ;     CG2R61     CG2R61     CG2R61     CG2R61
   42    31    32    66	 9 ;      CG331     CG2R61     CG2R61      HGR61
   42    31    32    33	 9 ;      CG331     CG2R61     CG2R61     CG2R61
   30    31    42    78	 9 ;     CG2R61     CG2R61      CG331       HGA3
   30    31    42    77	 9 ;     CG2R61     CG2R61      CG331       HGA3
   30    31    42    79	 9 ;     CG2R61     CG2R61      CG331       HGA3
   32    31    42    78	 9 ;     CG2R61     CG2R61      CG331       HGA3
   32    31    42    77	 9 ;     CG2R61     CG2R61      CG331       HGA3
   32    31    42    79	 9 ;     CG2R61     CG2R61      CG331       HGA3
   31    32    33    67	 9 ;     CG2R61     CG2R61     CG2R61      HGR61
   31    32    33    34	 9 ;     CG2R61     CG2R61     CG2R61     CG2R61
   66    32    33    67	 9 ;      HGR61     CG2R61     CG2R61      HGR61
   66    32    33    34	 9 ;      HGR61     CG2R61     CG2R61     CG2R61
   32    33    34    24	 9 ;     CG2R61     CG2R61     CG2R61     CG2R61
   32    33    34    68	 9 ;     CG2R61     CG2R61     CG2R61      HGR61
   67    33    34    24	 9 ;      HGR61     CG2R61     CG2R61     CG2R61
   67    33    34    68	 9 ;      HGR61     CG2R61     CG2R61      HGR61
   20    36    37    38	 9 ;     CG3C51     CG2R61     CG2R61     CG2R61
   20    36    37    72	 9 ;     CG3C51     CG2R61     CG2R61      HGR61
   41    36    37    38	 9 ;     CG2R61     CG2R61     CG2R61     CG2R61
   41    36    37    72	 9 ;     CG2R61     CG2R61     CG2R61      HGR61
   20    36    41    40	 9 ;     CG3C51     CG2R61     CG2R61     CG2R61
   20    36    41    76	 9 ;     CG3C51     CG2R61     CG2R61      HGR61
   37    36    41    40	 9 ;     CG2R61     CG2R61     CG2R61     CG2R61
   37    36    41    76	 9 ;     CG2R61     CG2R61     CG2R61      HGR61
   36    37    38    39	 9 ;     CG2R61     CG2R61     CG2R61     CG2R61
   36    37    38    73	 9 ;     CG2R61     CG2R61     CG2R61      HGR61
   72    37    38    39	 9 ;      HGR61     CG2R61     CG2R61     CG2R61
   72    37    38    73	 9 ;      HGR61     CG2R61     CG2R61      HGR61
   37    38    39    74	 9 ;     CG2R61     CG2R61     CG2R61      HGR61
   37    38    39    40	 9 ;     CG2R61     CG2R61     CG2R61     CG2R61
   73    38    39    74	 9 ;      HGR61     CG2R61     CG2R61      HGR61
   73    38    39    40	 9 ;      HGR61     CG2R61     CG2R61     CG2R61
   38    39    40    75	 9 ;     CG2R61     CG2R61     CG2R61      HGR61
   38    39    40    41	 9 ;     CG2R61     CG2R61     CG2R61     CG2R61
   74    39    40    75	 9 ;      HGR61     CG2R61     CG2R61      HGR61
   74    39    40    41	 9 ;      HGR61     CG2R61     CG2R61     CG2R61
   39    40    41    36	 9 ;     CG2R61     CG2R61     CG2R61     CG2R61
   39    40    41    76	 9 ;     CG2R61     CG2R61     CG2R61      HGR61
   75    40    41    36	 9 ;      HGR61     CG2R61     CG2R61     CG2R61
   75    40    41    76	 9 ;      HGR61     CG2R61     CG2R61      HGR61
; Ligand position restraints
#ifdef POSRES
#include "posre_jz4.itp"
#endif
