mol in water
 4381
    1JZ4     C1    1   1.568   1.930   2.323
    1JZ4     C2    2   1.656   1.872   2.411
    1JZ4     C3    3   1.767   1.807   2.360
    1JZ4     C4    4   1.794   1.800   2.222
    1JZ4     C5    5   1.689   1.837   2.134
    1JZ4     C6    6   1.583   1.910   2.187
    1JZ4     C7    7   1.943   1.786   2.182
    1JZ4     C8    8   1.979   1.687   2.069
    1JZ4     C9    9   1.864   1.647   1.983
    1JZ4    C10   10   1.789   1.761   1.919
    1JZ4    C11   11   1.684   1.812   1.985
    1JZ4    C12   12   1.637   1.885   2.560
    1JZ4    C13   13   2.032   1.739   2.300
    1JZ4    C14   14   1.987   1.927   2.142
    1JZ4    C15   15   1.825   1.788   1.777
    1JZ4    C16   16   1.745   1.764   1.669
    1JZ4    C17   17   1.597   1.731   1.687
    1JZ4    N18   18   1.524   1.744   1.798
    1JZ4    C19   19   1.551   1.829   1.915
    1JZ4    C20   20   1.507   1.682   1.592
    1JZ4    N21   21   1.395   1.640   1.660
    1JZ4    N22   22   1.406   1.677   1.791
    1JZ4    C23   23   1.806   1.771   1.534
    1JZ4    C24   24   1.957   1.847   1.754
    1JZ4    C25   25   1.906   1.683   1.493
    1JZ4    C26   26   1.955   1.688   1.363
    1JZ4    C27   27   1.901   1.777   1.271
    1JZ4    C28   28   1.798   1.862   1.310
    1JZ4    C29   29   1.756   1.861   1.442
    1JZ4    C30   30   2.073   1.769   1.750
    1JZ4    C31   31   2.197   1.826   1.724
    1JZ4    C32   32   2.205   1.964   1.704
    1JZ4    C33   33   2.091   2.043   1.711
    1JZ4    C34   34   1.968   1.985   1.735
    1JZ4    C35   35   1.730   1.951   1.210
    1JZ4    C36   36   1.512   1.674   1.443
    1JZ4    C37   37   1.426   1.755   1.370
    1JZ4    C38   38   1.424   1.752   1.231
    1JZ4    C39   39   1.509   1.666   1.163
    1JZ4    C40   40   1.595   1.586   1.235
    1JZ4    C41   41   1.595   1.589   1.374
    1JZ4    C42   42   2.321   1.742   1.717
    1JZ4    H43   43   1.483   1.987   2.360
    1JZ4    H44   44   1.835   1.770   2.434
    1JZ4    H45   45   1.507   1.956   2.125
    1JZ4    H46   46   2.018   1.594   2.110
    1JZ4    H47   47   2.061   1.727   2.010
    1JZ4    H48   48   1.904   1.582   1.906
    1JZ4    H49   49   1.795   1.587   2.043
    1JZ4    H50   50   1.531   1.900   2.584
    1JZ4    H51   51   1.693   1.971   2.597
    1JZ4    H52   52   1.671   1.796   2.612
    1JZ4    H53   53   2.137   1.732   2.269
    1JZ4    H54   54   2.004   1.639   2.334
    1JZ4    H55   55   2.030   1.804   2.386
    1JZ4    H56   56   1.962   1.999   2.220
    1JZ4    H57   57   1.939   1.961   2.050
    1JZ4    H58   58   2.094   1.933   2.127
    1JZ4    H59   59   1.471   1.804   1.984
    1JZ4    H60   60   1.533   1.931   1.886
    1JZ4    H61   61   1.947   1.609   1.561
    1JZ4    H62   62   2.034   1.620   1.332
    1JZ4    H63   63   1.936   1.778   1.169
    1JZ4    H64   64   1.677   1.925   1.474
    1JZ4    H65   65   2.066   1.662   1.765
    1JZ4    H66   66   2.300   2.010   1.683
    1JZ4    H67   67   2.099   2.149   1.696
    1JZ4    H68   68   1.879   2.047   1.737
    1JZ4    H69   69   1.675   1.891   1.137
    1JZ4    H70   70   1.802   2.012   1.157
    1JZ4    H71   71   1.659   2.018   1.258
    1JZ4    H72   72   1.359   1.823   1.421
    1JZ4    H73   73   1.357   1.817   1.177
    1JZ4    H74   74   1.509   1.663   1.055
    1JZ4    H75   75   1.664   1.521   1.183
    1JZ4    H76   76   1.664   1.525   1.427
    1JZ4    H77   77   2.296   1.638   1.695
    1JZ4    H78   78   2.387   1.778   1.638
    1JZ4    H79   79   2.375   1.747   1.812
    1JZ4     H1   80   1.812   1.864   1.936
    1JZ4     H2   81   1.742   1.899   1.963
    1JZ4     H3   82   1.739   1.724   1.768
    1JZ4     H4   83   1.571   1.688   1.506
    1JZ4     H5   84   1.388   1.538   1.653
    1JZ4     H6   85   1.408   1.595   1.852
    2SOL     OW   86   0.230   0.628   0.113
    2SOL    HW1   87   0.137   0.626   0.150
    2SOL    HW2   88   0.231   0.589   0.021
    3SOL     OW   89   0.225   0.275   0.996
    3SOL    HW1   90   0.260   0.258   1.088
    3SOL    HW2   91   0.137   0.230   0.984
    4SOL     OW   92   0.019   0.368   0.647
    4SOL    HW1   93  -0.063   0.411   0.686
    4SOL    HW2   94  -0.009   0.295   0.584
    5SOL     OW   95   0.569   1.275   1.165
    5SOL    HW1   96   0.476   1.268   1.128
    5SOL    HW2   97   0.580   1.364   1.209
    6SOL     OW   98   1.555   1.511   0.703
    6SOL    HW1   99   1.498   1.495   0.784
    6SOL    HW2  100   1.496   1.521   0.623
    7SOL     OW  101   1.135   0.703   0.717
    7SOL    HW1  102   1.192   0.781   0.692
    7SOL    HW2  103   1.075   0.729   0.793
    8SOL     OW  104   1.755   0.607   0.231
    8SOL    HW1  105   1.743   0.594   0.132
    8SOL    HW2  106   1.725   0.526   0.280
    9SOL     OW  107   0.768   1.144   1.023
    9SOL    HW1  108   0.690   1.161   1.083
    9SOL    HW2  109   0.802   1.231   0.987
   10SOL     OW  110   0.850   0.798   1.823
   10SOL    HW1  111   0.846   0.874   1.888
   10SOL    HW2  112   0.872   0.834   1.732
   11SOL     OW  113   0.685   1.012   0.665
   11SOL    HW1  114   0.754   0.996   0.735
   11SOL    HW2  115   0.612   1.069   0.703
   12SOL     OW  116   0.686   1.161   1.803
   12SOL    HW1  117   0.746   1.240   1.817
   12SOL    HW2  118   0.600   1.192   1.762
   13SOL     OW  119   0.335   1.435   1.061
   13SOL    HW1  120   0.257   1.404   1.008
   13SOL    HW2  121   0.393   1.493   1.004
   14SOL     OW  122   0.438   0.392   1.499
   14SOL    HW1  123   0.520   0.336   1.508
   14SOL    HW2  124   0.357   0.334   1.503
   15SOL     OW  125   1.603   0.447   0.737
   15SOL    HW1  126   1.529   0.493   0.687
   15SOL    HW2  127   1.654   0.515   0.790
   16SOL     OW  128   0.231   1.713   0.483
   16SOL    HW1  129   0.265   1.790   0.537
   16SOL    HW2  130   0.275   1.713   0.393
   17SOL     OW  131   1.127   1.341   1.690
   17SOL    HW1  132   1.174   1.341   1.778
   17SOL    HW2  133   1.079   1.254   1.679
   18SOL     OW  134   0.230   1.434   0.538
   18SOL    HW1  135   0.204   1.530   0.538
   18SOL    HW2  136   0.159   1.380   0.583
   19SOL     OW  137   0.240   1.091   0.886
   19SOL    HW1  138   0.254   1.007   0.938
   19SOL    HW2  139   0.185   1.155   0.941
   20SOL     OW  140   0.620   1.786   1.439
   20SOL    HW1  141   0.528   1.769   1.474
   20SOL    HW2  142   0.648   1.878   1.465
   21SOL     OW  143   0.606   0.964   0.123
   21SOL    HW1  144   0.613   1.048   0.069
   21SOL    HW2  145   0.652   0.977   0.211
   22SOL     OW  146   1.594   0.114   1.480
   22SOL    HW1  147   1.576   0.181   1.408
   22SOL    HW2  148   1.591   0.160   1.569
   23SOL     OW  149   0.122   0.643   0.563
   23SOL    HW1  150   0.077   0.555   0.580
   23SOL    HW2  151   0.121   0.697   0.647
   24SOL     OW  152   1.842   1.767   0.359
   24SOL    HW1  153   1.896   1.738   0.439
   24SOL    HW2  154   1.872   1.857   0.330
   25SOL     OW  155   0.027   1.596   0.117
   25SOL    HW1  156   0.008   1.500   0.138
   25SOL    HW2  157  -0.006   1.654   0.192
   26SOL     OW  158   1.689   0.922   0.612
   26SOL    HW1  159   1.784   0.893   0.620
   26SOL    HW2  160   1.681   0.987   0.537
   27SOL     OW  161   1.641   1.108   0.432
   27SOL    HW1  162   1.727   1.110   0.380
   27SOL    HW2  163   1.655   1.155   0.520
   28SOL     OW  164   0.113   0.737   1.597
   28SOL    HW1  165   0.201   0.724   1.642
   28SOL    HW2  166   0.100   0.834   1.575
   29SOL     OW  167   0.613   1.365   0.726
   29SOL    HW1  168   0.564   1.278   0.735
   29SOL    HW2  169   0.590   1.408   0.639
   30SOL     OW  170   1.293   1.228   1.423
   30SOL    HW1  171   1.330   1.155   1.365
   30SOL    HW2  172   1.345   1.233   1.508
   31SOL     OW  173   0.809   0.004   0.502
   31SOL    HW1  174   0.849   0.095   0.493
   31SOL    HW2  175   0.709   0.012   0.508
   32SOL     OW  176   0.197   0.976   1.264
   32SOL    HW1  177   0.286   0.931   1.250
   32SOL    HW2  178   0.124   0.911   1.245
   33SOL     OW  179   1.525   0.999   0.190
   33SOL    HW1  180   1.462   0.923   0.203
   33SOL    HW2  181   1.573   1.017   0.276
   34SOL     OW  182   1.187   1.792   1.616
   34SOL    HW1  183   1.211   1.852   1.540
   34SOL    HW2  184   1.194   1.697   1.586
   35SOL     OW  185   0.317   0.251   1.801
   35SOL    HW1  186   0.388   0.322   1.807
   35SOL    HW2  187   0.229   0.290   1.829
   36SOL     OW  188   1.466   1.417   0.953
   36SOL    HW1  189   1.407   1.423   1.033
   36SOL    HW2  190   1.451   1.329   0.907
   37SOL     OW  191   1.667   1.714   0.572
   37SOL    HW1  192   1.626   1.691   0.484
   37SOL    HW2  193   1.649   1.640   0.637
   38SOL     OW  194   0.598   0.729   0.270
   38SOL    HW1  195   0.622   0.798   0.202
   38SOL    HW2  196   0.520   0.762   0.324
   39SOL     OW  197   1.281   0.345   0.944
   39SOL    HW1  198   1.195   0.295   0.931
   39SOL    HW2  199   1.343   0.291   1.000
   40SOL     OW  200   1.576   1.662   0.307
   40SOL    HW1  201   1.665   1.708   0.310
   40SOL    HW2  202   1.555   1.638   0.212
   41SOL     OW  203   0.807   0.605   1.465
   41SOL    HW1  204   0.760   0.602   1.554
   41SOL    HW2  205   0.756   0.550   1.399
   42SOL     OW  206   1.394   0.469   1.674
   42SOL    HW1  207   1.374   0.512   1.762
   42SOL    HW2  208   1.472   0.407   1.683
   43SOL     OW  209   0.973   0.890   1.572
   43SOL    HW1  210   1.019   0.806   1.543
   43SOL    HW2  211   0.917   0.924   1.497
   44SOL     OW  212   0.991   0.410   1.242
   44SOL    HW1  213   0.914   0.444   1.296
   44SOL    HW2  214   0.957   0.359   1.163
   45SOL     OW  215   1.041   0.701   0.429
   45SOL    HW1  216   1.067   0.697   0.525
   45SOL    HW2  217   0.956   0.650   0.415
   46SOL     OW  218   0.076   0.811   0.789
   46SOL    HW1  219   0.175   0.799   0.798
   46SOL    HW2  220   0.052   0.906   0.810
   47SOL     OW  221   0.130   1.821   1.571
   47SOL    HW1  222   0.120   1.806   1.670
   47SOL    HW2  223   0.044   1.857   1.535
   48SOL     OW  224   0.865   0.348   0.195
   48SOL    HW1  225   0.924   0.411   0.146
   48SOL    HW2  226   0.884   0.254   0.166
   49SOL     OW  227   1.719   0.585   1.831
   49SOL    HW1  228   1.693   0.674   1.795
   49SOL    HW2  229   1.717   0.517   1.758
   50SOL     OW  230   1.362   1.144   0.545
   50SOL    HW1  231   1.445   1.115   0.497
   50SOL    HW2  232   1.313   1.211   0.489
   51SOL     OW  233   0.550   0.196   0.885
   51SOL    HW1  234   0.545   0.191   0.985
   51SOL    HW2  235   0.552   0.292   0.856
   52SOL     OW  236   1.008   1.456   0.477
   52SOL    HW1  237   0.962   1.528   0.425
   52SOL    HW2  238   1.004   1.476   0.575
   53SOL     OW  239   0.351   1.801   0.853
   53SOL    HW1  240   0.401   1.715   0.859
   53SOL    HW2  241   0.416   1.878   0.850
   54SOL     OW  242   1.795   1.066   0.873
   54SOL    HW1  243   1.733   1.051   0.797
   54SOL    HW2  244   1.743   1.077   0.958
   55SOL     OW  245   1.227   1.550   1.506
   55SOL    HW1  246   1.233   1.473   1.570
   55SOL    HW2  247   1.175   1.524   1.426
   56SOL     OW  248   0.321   0.943   0.242
   56SOL    HW1  249   0.403   0.982   0.200
   56SOL    HW2  250   0.294   0.861   0.193
   57SOL     OW  251   1.458   0.735   0.728
   57SOL    HW1  252   1.453   0.670   0.803
   57SOL    HW2  253   1.538   0.794   0.741
   58SOL     OW  254   0.461   1.266   1.727
   58SOL    HW1  255   0.411   1.267   1.641
   58SOL    HW2  256   0.398   1.248   1.803
   59SOL     OW  257   1.111   1.776   0.237
   59SOL    HW1  258   1.051   1.714   0.287
   59SOL    HW2  259   1.142   1.732   0.152
   60SOL     OW  260   0.202   0.285   1.498
   60SOL    HW1  261   0.122   0.345   1.485
   60SOL    HW2  262   0.192   0.236   1.584
   61SOL     OW  263   1.632   1.377   0.081
   61SOL    HW1  264   1.600   1.471   0.071
   61SOL    HW2  265   1.556   1.314   0.069
   62SOL     OW  266   0.464   1.743   0.323
   62SOL    HW1  267   0.497   1.782   0.409
   62SOL    HW2  268   0.540   1.736   0.258
   63SOL     OW  269   1.400   0.107   0.426
   63SOL    HW1  270   1.376   0.070   0.336
   63SOL    HW2  271   1.499   0.123   0.430
   64SOL     OW  272   0.249   1.785   1.241
   64SOL    HW1  273   0.306   1.720   1.291
   64SOL    HW2  274   0.233   1.752   1.148
   65SOL     OW  275   0.940   1.698   0.904
   65SOL    HW1  276   1.020   1.641   0.925
   65SOL    HW2  277   0.891   1.658   0.827
   66SOL     OW  278   0.382   0.700   0.480
   66SOL    HW1  279   0.427   0.610   0.477
   66SOL    HW2  280   0.288   0.689   0.513
   67SOL     OW  281   1.547   0.222   1.729
   67SOL    HW1  282   1.542   0.259   1.821
   67SOL    HW2  283   1.475   0.153   1.717
   68SOL     OW  284   0.614   0.122   0.117
   68SOL    HW1  285   0.712   0.100   0.124
   68SOL    HW2  286   0.583   0.105   0.024
   69SOL     OW  287   0.781   0.264   1.749
   69SOL    HW1  288   0.848   0.203   1.792
   69SOL    HW2  289   0.708   0.283   1.814
   70SOL     OW  290   0.888   1.514   1.195
   70SOL    HW1  291   0.865   1.489   1.101
   70SOL    HW2  292   0.949   1.445   1.234
   71SOL     OW  293   1.351   0.590   1.433
   71SOL    HW1  294   1.379   0.547   1.518
   71SOL    HW2  295   1.376   0.686   1.434
   72SOL     OW  296   0.803   1.402   0.924
   72SOL    HW1  297   0.893   1.416   0.882
   72SOL    HW2  298   0.732   1.404   0.853
   73SOL     OW  299   0.922   0.503   0.899
   73SOL    HW1  300   0.897   0.494   0.803
   73SOL    HW2  301   0.970   0.421   0.930
   74SOL     OW  302   0.539   0.064   0.512
   74SOL    HW1  303   0.458   0.065   0.570
   74SOL    HW2  304   0.542   0.147   0.457
   75SOL     OW  305   1.434   1.188   0.041
   75SOL    HW1  306   1.466   1.112   0.098
   75SOL    HW2  307   1.342   1.215   0.071
   76SOL     OW  308   0.297   0.035   0.171
   76SOL    HW1  309   0.346   0.119   0.150
   76SOL    HW2  310   0.359  -0.030   0.216
   77SOL     OW  311   0.935   0.236   0.480
   77SOL    HW1  312   0.887   0.277   0.402
   77SOL    HW2  313   1.034   0.234   0.461
   78SOL     OW  314   1.076   0.683   1.464
   78SOL    HW1  315   0.996   0.622   1.467
   78SOL    HW2  316   1.157   0.630   1.440
   79SOL     OW  317   1.227   1.570   0.793
   79SOL    HW1  318   1.248   1.644   0.728
   79SOL    HW2  319   1.295   1.570   0.866
   80SOL     OW  320   0.459   1.152   0.741
   80SOL    HW1  321   0.388   1.125   0.806
   80SOL    HW2  322   0.433   1.124   0.648
   81SOL     OW  323   1.271   1.797   0.591
   81SOL    HW1  324   1.315   1.861   0.527
   81SOL    HW2  325   1.221   1.849   0.661
   82SOL     OW  326   1.032   0.549   0.016
   82SOL    HW1  327   0.991   0.631  -0.023
   82SOL    HW2  328   1.096   0.575   0.089
   83SOL     OW  329   0.078   0.556   1.386
   83SOL    HW1  330   0.170   0.555   1.345
   83SOL    HW2  331   0.072   0.630   1.453
   84SOL     OW  332   0.561   0.222   1.147
   84SOL    HW1  333   0.599   0.138   1.184
   84SOL    HW2  334   0.473   0.241   1.191
   85SOL     OW  335   0.866   0.454   0.642
   85SOL    HW1  336   0.834   0.526   0.580
   85SOL    HW2  337   0.890   0.373   0.589
   86SOL     OW  338   1.017   0.039   0.753
   86SOL    HW1  339   0.945   0.044   0.684
   86SOL    HW2  340   0.993  -0.030   0.822
   87SOL     OW  341   1.429   1.173   0.867
   87SOL    HW1  342   1.374   1.089   0.860
   87SOL    HW2  343   1.455   1.202   0.775
   88SOL     OW  344   1.466   0.590   0.992
   88SOL    HW1  345   1.436   0.495   0.999
   88SOL    HW2  346   1.539   0.606   1.058
   89SOL     OW  347   1.857   0.833   0.377
   89SOL    HW1  348   1.899   0.769   0.441
   89SOL    HW2  349   1.819   0.782   0.299
   90SOL     OW  350   0.488   1.385   0.174
   90SOL    HW1  351   0.401   1.370   0.221
   90SOL    HW2  352   0.471   1.411   0.079
   91SOL     OW  353   1.664   1.280   0.657
   91SOL    HW1  354   1.763   1.288   0.671
   91SOL    HW2  355   1.619   1.364   0.688
   92SOL     OW  356   1.390   0.575   0.078
   92SOL    HW1  357   1.336   0.554   0.159
   92SOL    HW2  358   1.481   0.534   0.087
   93SOL     OW  359   0.527   0.256   0.328
   93SOL    HW1  360   0.554   0.197   0.253
   93SOL    HW2  361   0.527   0.351   0.297
   94SOL     OW  362   1.754   1.223   1.588
   94SOL    HW1  363   1.845   1.184   1.575
   94SOL    HW2  364   1.762   1.319   1.612
   95SOL     OW  365   1.064   1.347   1.340
   95SOL    HW1  366   0.984   1.324   1.395
   95SOL    HW2  367   1.147   1.321   1.389
   96SOL     OW  368   1.111   1.195   1.100
   96SOL    HW1  369   1.071   1.239   1.181
   96SOL    HW2  370   1.070   1.232   1.017
   97SOL     OW  371   1.638   1.099   1.079
   97SOL    HW1  372   1.643   1.180   1.138
   97SOL    HW2  373   1.552   1.101   1.028
   98SOL     OW  374   0.915   0.089   1.402
   98SOL    HW1  375   0.940   0.069   1.307
   98SOL    HW2  376   0.987   0.145   1.444
   99SOL     OW  377   0.980   1.116   1.719
   99SOL    HW1  378   0.881   1.122   1.729
   99SOL    HW2  379   1.003   1.036   1.663
  100SOL     OW  380   0.705   1.050   0.368
  100SOL    HW1  381   0.691   1.057   0.467
  100SOL    HW2  382   0.789   0.999   0.350
  101SOL     OW  383   0.410   0.813   1.251
  101SOL    HW1  384   0.496   0.825   1.301
  101SOL    HW2  385   0.368   0.726   1.278
  102SOL     OW  386   1.274   0.386   1.262
  102SOL    HW1  387   1.295   0.460   1.326
  102SOL    HW2  388   1.185   0.403   1.219
  103SOL     OW  389   0.064   1.564   1.331
  103SOL    HW1  390   0.018   1.646   1.297
  103SOL    HW2  391   0.162   1.583   1.340
  104SOL     OW  392   0.367   1.100   0.501
  104SOL    HW1  393   0.360   1.183   0.445
  104SOL    HW2  394   0.371   1.020   0.441
  105SOL     OW  395   0.566   0.537   0.865
  105SOL    HW1  396   0.578   0.603   0.791
  105SOL    HW2  397   0.612   0.571   0.948
  106SOL     OW  398   1.252   1.348   0.388
  106SOL    HW1  399   1.302   1.425   0.428
  106SOL    HW2  400   1.157   1.350   0.420
  107SOL     OW  401   1.272   1.445   1.142
  107SOL    HW1  402   1.319   1.458   1.229
  107SOL    HW2  403   1.206   1.371   1.151
  108SOL     OW  404   1.582   0.639   0.472
  108SOL    HW1  405   1.551   0.700   0.545
  108SOL    HW2  406   1.632   0.691   0.403
  109SOL     OW  407   0.354   1.510   1.329
  109SOL    HW1  408   0.333   1.466   1.242
  109SOL    HW2  409   0.451   1.536   1.332
  110SOL     OW  410   0.402   0.751   1.598
  110SOL    HW1  411   0.470   0.806   1.551
  110SOL    HW2  412   0.442   0.663   1.625
  111SOL     OW  413   1.587   0.779   1.670
  111SOL    HW1  414   1.495   0.817   1.665
  111SOL    HW2  415   1.647   0.826   1.605
  112SOL     OW  416   1.013   0.105   1.770
  112SOL    HW1  417   1.019   0.190   1.718
  112SOL    HW2  418   1.045   0.029   1.713
  113SOL     OW  419   0.504   0.050   1.740
  113SOL    HW1  420   0.462  -0.007   1.670
  113SOL    HW2  421   0.438   0.119   1.772
  114SOL     OW  422   0.573   0.870   1.029
  114SOL    HW1  423   0.617   0.959   1.020
  114SOL    HW2  424   0.510   0.870   1.106
  115SOL     OW  425   1.360   0.862   1.045
  115SOL    HW1  426   1.285   0.862   0.979
  115SOL    HW2  427   1.397   0.770   1.054
  116SOL     OW  428   1.209   0.525   0.275
  116SOL    HW1  429   1.222   0.441   0.329
  116SOL    HW2  430   1.180   0.599   0.335
  117SOL     OW  431   0.307   0.213   1.231
  117SOL    HW1  432   0.284   0.250   1.321
  117SOL    HW2  433   0.277   0.118   1.225
  118SOL     OW  434   0.037   1.310   1.282
  118SOL    HW1  435   0.090   1.261   1.350
  118SOL    HW2  436   0.059   1.408   1.287
  119SOL     OW  437   0.732   0.634   1.064
  119SOL    HW1  438   0.791   0.608   0.988
  119SOL    HW2  439   0.704   0.730   1.053
  120SOL     OW  440   1.728   0.935   1.854
  120SOL    HW1  441   1.682   0.928   1.765
  120SOL    HW2  442   1.666   0.979   1.920
  121SOL     OW  443   0.307   0.063   0.618
  121SOL    HW1  444   0.296   0.157   0.651
  121SOL    HW2  445   0.302   0.000   0.695
  122SOL     OW  446   1.622   0.367   0.374
  122SOL    HW1  447   1.624   0.291   0.438
  122SOL    HW2  448   1.574   0.444   0.414
  123SOL     OW  449   1.023   0.766   0.966
  123SOL    HW1  450   1.038   0.787   1.062
  123SOL    HW2  451   0.993   0.671   0.957
  124SOL     OW  452   0.980   1.573   1.700
  124SOL    HW1  453   0.960   1.617   1.612
  124SOL    HW2  454   1.019   1.482   1.684
  125SOL     OW  455   0.350   0.898   1.804
  125SOL    HW1  456   0.426   0.942   1.852
  125SOL    HW2  457   0.385   0.851   1.722
  126SOL     OW  458   1.540   0.274   0.125
  126SOL    HW1  459   1.479   0.199   0.148
  126SOL    HW2  460   1.562   0.326   0.208
  127SOL     OW  461   1.303   0.838   0.042
  127SOL    HW1  462   1.337   0.745   0.057
  127SOL    HW2  463   1.321   0.865  -0.053
  128SOL     OW  464   1.068   1.333   0.849
  128SOL    HW1  465   1.075   1.249   0.794
  128SOL    HW2  466   1.130   1.402   0.813
  129SOL     OW  467   0.319   0.810   0.949
  129SOL    HW1  468   0.412   0.846   0.954
  129SOL    HW2  469   0.313   0.725   1.001
  130SOL     OW  470   0.339   0.509   1.006
  130SOL    HW1  471   0.287   0.426   0.989
  130SOL    HW2  472   0.416   0.514   0.942
  131SOL     OW  473   1.138   0.380   1.678
  131SOL    HW1  474   1.093   0.443   1.742
  131SOL    HW2  475   1.231   0.411   1.661
  132SOL     OW  476   1.160   0.207   1.477
  132SOL    HW1  477   1.160   0.271   1.554
  132SOL    HW2  478   1.188   0.255   1.394
  133SOL     OW  479   0.008   1.326   0.200
  133SOL    HW1  480  -0.085   1.347   0.169
  133SOL    HW2  481   0.018   1.227   0.213
  134SOL     OW  482   0.088   1.801   0.927
  134SOL    HW1  483   0.046   1.715   0.900
  134SOL    HW2  484   0.182   1.804   0.893
  135SOL     OW  485   0.504   1.568   0.910
  135SOL    HW1  486   0.570   1.642   0.919
  135SOL    HW2  487   0.548   1.489   0.868
  136SOL     OW  488   1.002   0.796   1.238
  136SOL    HW1  489   1.043   0.764   1.324
  136SOL    HW2  490   0.906   0.769   1.235
  137SOL     OW  491   0.040   0.544   1.114
  137SOL    HW1  492   0.125   0.511   1.073
  137SOL    HW2  493   0.053   0.559   1.212
  138SOL     OW  494   0.189   0.520   1.722
  138SOL    HW1  495   0.248   0.480   1.652
  138SOL    HW2  496   0.131   0.591   1.681
  139SOL     OW  497   1.369   0.950   1.660
  139SOL    HW1  498   1.408   1.039   1.680
  139SOL    HW2  499   1.379   0.930   1.563
  140SOL     OW  500   0.815   0.572   0.325
  140SOL    HW1  501   0.822   0.483   0.279
  140SOL    HW2  502   0.721   0.606   0.317
  141SOL     OW  503   1.657   0.604   1.206
  141SOL    HW1  504   1.619   0.535   1.268
  141SOL    HW2  505   1.739   0.568   1.162
  142SOL     OW  506   0.252   1.564   1.744
  142SOL    HW1  507   0.222   1.621   1.820
  142SOL    HW2  508   0.245   1.467   1.770
  143SOL     OW  509   0.671   0.464   1.269
  143SOL    HW1  510   0.637   0.375   1.239
  143SOL    HW2  511   0.697   0.518   1.189
  144SOL     OW  512   0.930   1.678   1.465
  144SOL    HW1  513   0.906   1.660   1.370
  144SOL    HW2  514   0.960   1.772   1.475
  145SOL     OW  515   0.473   0.500   0.191
  145SOL    HW1  516   0.534   0.580   0.195
  145SOL    HW2  517   0.378   0.531   0.198
  146SOL     OW  518   0.159   1.137   1.466
  146SOL    HW1  519   0.181   1.076   1.542
  146SOL    HW2  520   0.169   1.088   1.380
  147SOL     OW  521   1.347   1.059   1.234
  147SOL    HW1  522   1.371   0.996   1.160
  147SOL    HW2  523   1.257   1.099   1.216
  148SOL     OW  524   1.302   0.855   0.309
  148SOL    HW1  525   1.216   0.824   0.351
  148SOL    HW2  526   1.298   0.841   0.210
  149SOL     OW  527   1.759   1.747   1.154
  149SOL    HW1  528   1.820   1.777   1.081
  149SOL    HW2  529   1.721   1.658   1.132
  150SOL     OW  530   0.083   1.258   1.022
  150SOL    HW1  531   0.078   1.257   1.122
  150SOL    HW2  532   0.000   1.217   0.984
  151SOL     OW  533   0.688   1.662   1.716
  151SOL    HW1  534   0.632   1.743   1.725
  151SOL    HW2  535   0.740   1.666   1.630
  152SOL     OW  536   0.903   0.086   0.133
  152SOL    HW1  537   0.954   0.087   0.047
  152SOL    HW2  538   0.959   0.044   0.204
  153SOL     OW  539   1.726   0.135   0.523
  153SOL    HW1  540   1.799   0.118   0.456
  153SOL    HW2  541   1.695   0.048   0.561
  154SOL     OW  542   1.388   1.573   0.477
  154SOL    HW1  543   1.455   1.585   0.403
  154SOL    HW2  544   1.348   1.662   0.500
  155SOL     OW  545   0.130   1.794   1.851
  155SOL    HW1  546   0.089   1.720   1.904
  155SOL    HW2  547   0.194   1.845   1.909
  156SOL     OW  548   1.280   0.927   0.672
  156SOL    HW1  549   1.340   0.846   0.674
  156SOL    HW2  550   1.320   0.996   0.612
  157SOL     OW  551   0.830   1.273   1.422
  157SOL    HW1  552   0.825   1.306   1.517
  157SOL    HW2  553   0.744   1.292   1.376
  158SOL     OW  554   0.672   1.616   0.154
  158SOL    HW1  555   0.681   1.626   0.055
  158SOL    HW2  556   0.632   1.527   0.175
  159SOL     OW  557   1.841   0.175   0.963
  159SOL    HW1  558   1.880   0.090   0.927
  159SOL    HW2  559   1.743   0.177   0.944
  160SOL     OW  560   0.263   0.326   0.720
  160SOL    HW1  561   0.184   0.377   0.686
  160SOL    HW2  562   0.254   0.311   0.818
  161SOL     OW  563   1.194   1.612   0.031
  161SOL    HW1  564   1.200   1.519   0.068
  161SOL    HW2  565   1.135   1.612  -0.049
  162SOL     OW  566   0.822   1.002   1.372
  162SOL    HW1  567   0.862   1.001   1.280
  162SOL    HW2  568   0.832   1.094   1.412
  163SOL     OW  569   0.916   0.910   0.291
  163SOL    HW1  570   0.979   0.948   0.223
  163SOL    HW2  571   0.956   0.827   0.330
  164SOL     OW  572   1.504   1.607   0.044
  164SOL    HW1  573   1.412   1.644   0.051
  164SOL    HW2  574   1.542   1.627  -0.046
  165SOL     OW  575   0.372   1.288   1.490
  165SOL    HW1  576   0.359   1.381   1.456
  165SOL    HW2  577   0.288   1.236   1.477
  166SOL     OW  578   1.614   1.292   1.289
  166SOL    HW1  579   1.674   1.295   1.369
  166SOL    HW2  580   1.539   1.356   1.302
  167SOL     OW  581   1.039   1.098   0.696
  167SOL    HW1  582   0.969   1.051   0.750
  167SOL    HW2  583   1.098   1.030   0.653
  168SOL     OW  584   1.014   0.236   0.971
  168SOL    HW1  585   1.006   0.200   0.878
  168SOL    HW2  586   1.012   0.160   1.036
  169SOL     OW  587   0.590   1.487   0.491
  169SOL    HW1  588   0.632   1.429   0.421
  169SOL    HW2  589   0.546   1.566   0.447
  170SOL     OW  590   1.709   0.385   1.381
  170SOL    HW1  591   1.782   0.454   1.385
  170SOL    HW2  592   1.737   0.310   1.322
  171SOL     OW  593   0.255   1.348   0.290
  171SOL    HW1  594   0.159   1.349   0.263
  171SOL    HW2  595   0.267   1.401   0.374
  172SOL     OW  596   0.105   1.013   1.726
  172SOL    HW1  597   0.028   0.980   1.780
  172SOL    HW2  598   0.190   0.983   1.768
  173SOL     OW  599   0.672   0.203   1.489
  173SOL    HW1  600   0.762   0.187   1.449
  173SOL    HW2  601   0.680   0.208   1.588
  174SOL     OW  602   0.075   0.345   0.033
  174SOL    HW1  603  -0.017   0.317   0.004
  174SOL    HW2  604   0.106   0.422  -0.023
  175SOL     OW  605   1.440   0.856   1.398
  175SOL    HW1  606   1.383   0.908   1.335
  175SOL    HW2  607   1.536   0.868   1.374
  176SOL     OW  608   0.072   0.166   0.318
  176SOL    HW1  609   0.055   0.249   0.264
  176SOL    HW2  610   0.162   0.129   0.296
  177SOL     OW  611   1.183   1.335   0.119
  177SOL    HW1  612   1.084   1.324   0.121
  177SOL    HW2  613   1.217   1.350   0.212
  178SOL     OW  614   0.613   0.842   1.431
  178SOL    HW1  615   0.669   0.923   1.414
  178SOL    HW2  616   0.672   0.762   1.434
  179SOL     OW  617   0.716   0.565   1.708
  179SOL    HW1  618   0.735   0.630   1.782
  179SOL    HW2  619   0.776   0.485   1.717
  180SOL     OW  620   1.450   1.220   1.633
  180SOL    HW1  621   1.441   1.210   1.732
  180SOL    HW2  622   1.546   1.213   1.607
  181SOL     OW  623   0.390   1.741   1.560
  181SOL    HW1  624   0.299   1.782   1.558
  181SOL    HW2  625   0.383   1.647   1.592
  182SOL     OW  626   1.674   0.883   1.254
  182SOL    HW1  627   1.647   0.794   1.217
  182SOL    HW2  628   1.675   0.951   1.181
  183SOL     OW  629   1.225   0.325   0.449
  183SOL    HW1  630   1.290   0.251   0.438
  183SOL    HW2  631   1.245   0.375   0.533
  184SOL     OW  632   0.594   0.745   0.652
  184SOL    HW1  633   0.644   0.830   0.633
  184SOL    HW2  634   0.506   0.747   0.604
  185SOL     OW  635   1.777   0.342   1.642
  185SOL    HW1  636   1.760   0.373   1.548
  185SOL    HW2  637   1.693   0.305   1.680
  186SOL     OW  638   1.730   0.934   1.517
  186SOL    HW1  639   1.768   1.025   1.532
  186SOL    HW2  640   1.722   0.917   1.418
  187SOL     OW  641   0.859   1.374   0.016
  187SOL    HW1  642   0.813   1.389   0.104
  187SOL    HW2  643   0.903   1.459  -0.014
  188SOL     OW  644   0.661   1.790   0.953
  188SOL    HW1  645   0.615   1.878   0.940
  188SOL    HW2  646   0.760   1.802   0.946
  189SOL     OW  647   0.859   0.956   0.861
  189SOL    HW1  648   0.913   0.887   0.909
  189SOL    HW2  649   0.827   1.025   0.927
  190SOL     OW  650   1.083   0.984   0.087
  190SOL    HW1  651   1.060   1.037   0.005
  190SOL    HW2  652   1.164   0.928   0.068
  191SOL     OW  653   1.861   1.569   0.851
  191SOL    HW1  654   1.790   1.557   0.781
  191SOL    HW2  655   1.862   1.490   0.911
  192SOL     OW  656   0.221   1.314   1.844
  192SOL    HW1  657   0.156   1.241   1.823
  192SOL    HW2  658   0.225   1.328   1.942
  193SOL     OW  659   0.079   1.240   0.653
  193SOL    HW1  660   0.078   1.193   0.741
  193SOL    HW2  661   0.161   1.212   0.602
  194SOL     OW  662   0.672   1.391   1.624
  194SOL    HW1  663   0.594   1.341   1.662
  194SOL    HW2  664   0.669   1.486   1.655
  195SOL     OW  665   1.824   0.192   1.227
  195SOL    HW1  666   1.820   0.102   1.271
  195SOL    HW2  667   1.827   0.181   1.128
  196SOL     OW  668   0.428   0.424   0.520
  196SOL    HW1  669   0.458   0.352   0.458
  196SOL    HW2  670   0.389   0.384   0.603
  197SOL     OW  671   0.317   0.547   1.280
  197SOL    HW1  672   0.355   0.488   1.352
  197SOL    HW2  673   0.357   0.521   1.192
  198SOL     OW  674   0.812   1.586   0.687
  198SOL    HW1  675   0.844   1.596   0.593
  198SOL    HW2  676   0.733   1.524   0.689
  199SOL     OW  677   1.424   0.214   1.112
  199SOL    HW1  678   1.476   0.149   1.167
  199SOL    HW2  679   1.375   0.277   1.173
  200SOL     OW  680   1.001   0.034   1.154
  200SOL    HW1  681   0.938  -0.038   1.123
  200SOL    HW2  682   1.094  -0.002   1.154
  201SOL     OW  683   0.770   1.330   0.301
  201SOL    HW1  684   0.724   1.243   0.318
  201SOL    HW2  685   0.861   1.327   0.342
  202SOL     OW  686   0.618   1.567   1.284
  202SOL    HW1  687   0.613   1.649   1.341
  202SOL    HW2  688   0.707   1.564   1.239
  203SOL     OW  689   1.352   0.052   0.168
  203SOL    HW1  690   1.387   0.011   0.084
  203SOL    HW2  691   1.262   0.014   0.188
  204SOL     OW  692   1.300   0.453   0.691
  204SOL    HW1  693   1.241   0.533   0.695
  204SOL    HW2  694   1.315   0.418   0.784
  205SOL     OW  695   1.593   0.221   0.882
  205SOL    HW1  696   1.509   0.220   0.936
  205SOL    HW2  697   1.595   0.304   0.826
  206SOL     OW  698   0.039   1.077   0.300
  206SOL    HW1  699   0.138   1.066   0.291
  206SOL    HW2  700  -0.001   0.991   0.332
  207SOL     OW  701   0.875   1.646   0.337
  207SOL    HW1  702   0.798   1.611   0.283
  207SOL    HW2  703   0.843   1.717   0.399
  208SOL     OW  704   0.230   0.628   1.975
  208SOL    HW1  705   0.137   0.626   2.012
  208SOL    HW2  706   0.231   0.589   1.883
  209SOL     OW  707   0.225   0.275   2.858
  209SOL    HW1  708   0.260   0.258   2.950
  209SOL    HW2  709   0.137   0.230   2.846
  210SOL     OW  710   0.019   0.368   2.509
  210SOL    HW1  711  -0.063   0.411   2.548
  210SOL    HW2  712  -0.009   0.295   2.446
  211SOL     OW  713   0.569   1.275   3.027
  211SOL    HW1  714   0.476   1.268   2.990
  211SOL    HW2  715   0.580   1.364   3.071
  212SOL     OW  716   1.555   1.511   2.565
  212SOL    HW1  717   1.498   1.495   2.646
  212SOL    HW2  718   1.496   1.521   2.485
  213SOL     OW  719   1.135   0.703   2.579
  213SOL    HW1  720   1.192   0.781   2.554
  213SOL    HW2  721   1.075   0.729   2.655
  214SOL     OW  722   1.755   0.607   2.093
  214SOL    HW1  723   1.743   0.594   1.994
  214SOL    HW2  724   1.725   0.526   2.142
  215SOL     OW  725   0.768   1.144   2.885
  215SOL    HW1  726   0.690   1.161   2.945
  215SOL    HW2  727   0.802   1.231   2.849
  216SOL     OW  728   0.685   1.012   2.527
  216SOL    HW1  729   0.754   0.996   2.597
  216SOL    HW2  730   0.612   1.069   2.565
  217SOL     OW  731   0.335   1.435   2.923
  217SOL    HW1  732   0.257   1.404   2.870
  217SOL    HW2  733   0.393   1.493   2.866
  218SOL     OW  734   1.460   1.505   3.201
  218SOL    HW1  735   1.484   1.599   3.227
  218SOL    HW2  736   1.444   1.451   3.283
  219SOL     OW  737   0.438   0.392   3.361
  219SOL    HW1  738   0.520   0.336   3.370
  219SOL    HW2  739   0.357   0.334   3.365
  220SOL     OW  740   1.603   0.447   2.599
  220SOL    HW1  741   1.529   0.493   2.549
  220SOL    HW2  742   1.654   0.515   2.652
  221SOL     OW  743   0.231   1.713   2.345
  221SOL    HW1  744   0.265   1.790   2.399
  221SOL    HW2  745   0.275   1.713   2.255
  222SOL     OW  746   0.230   1.434   2.400
  222SOL    HW1  747   0.204   1.530   2.400
  222SOL    HW2  748   0.159   1.380   2.445
  223SOL     OW  749   0.240   1.091   2.748
  223SOL    HW1  750   0.254   1.007   2.800
  223SOL    HW2  751   0.185   1.155   2.803
  224SOL     OW  752   0.620   1.786   3.301
  224SOL    HW1  753   0.528   1.769   3.336
  224SOL    HW2  754   0.648   1.878   3.327
  225SOL     OW  755   0.606   0.964   1.985
  225SOL    HW1  756   0.613   1.048   1.931
  225SOL    HW2  757   0.652   0.977   2.073
  226SOL     OW  758   1.594   0.114   3.342
  226SOL    HW1  759   1.576   0.181   3.270
  226SOL    HW2  760   1.591   0.160   3.431
  227SOL     OW  761   0.122   0.643   2.425
  227SOL    HW1  762   0.077   0.555   2.442
  227SOL    HW2  763   0.121   0.697   2.509
  228SOL     OW  764   0.027   1.596   1.979
  228SOL    HW1  765   0.008   1.500   2.000
  228SOL    HW2  766  -0.006   1.654   2.054
  229SOL     OW  767   1.689   0.922   2.474
  229SOL    HW1  768   1.784   0.893   2.482
  229SOL    HW2  769   1.681   0.987   2.399
  230SOL     OW  770   1.641   1.108   2.294
  230SOL    HW1  771   1.727   1.110   2.242
  230SOL    HW2  772   1.655   1.155   2.382
  231SOL     OW  773   0.113   0.737   3.459
  231SOL    HW1  774   0.201   0.724   3.504
  231SOL    HW2  775   0.100   0.834   3.437
  232SOL     OW  776   0.613   1.365   2.588
  232SOL    HW1  777   0.564   1.278   2.597
  232SOL    HW2  778   0.590   1.408   2.501
  233SOL     OW  779   1.293   1.228   3.285
  233SOL    HW1  780   1.330   1.155   3.227
  233SOL    HW2  781   1.345   1.233   3.370
  234SOL     OW  782   0.809   0.004   2.364
  234SOL    HW1  783   0.849   0.095   2.355
  234SOL    HW2  784   0.709   0.012   2.370
  235SOL     OW  785   0.197   0.976   3.126
  235SOL    HW1  786   0.286   0.931   3.112
  235SOL    HW2  787   0.124   0.911   3.107
  236SOL     OW  788   1.525   0.999   2.052
  236SOL    HW1  789   1.462   0.923   2.065
  236SOL    HW2  790   1.573   1.017   2.138
  237SOL     OW  791   1.466   1.417   2.815
  237SOL    HW1  792   1.407   1.423   2.895
  237SOL    HW2  793   1.451   1.329   2.769
  238SOL     OW  794   0.598   0.729   2.132
  238SOL    HW1  795   0.622   0.798   2.064
  238SOL    HW2  796   0.520   0.762   2.186
  239SOL     OW  797   1.281   0.345   2.806
  239SOL    HW1  798   1.195   0.295   2.793
  239SOL    HW2  799   1.343   0.291   2.862
  240SOL     OW  800   0.807   0.605   3.327
  240SOL    HW1  801   0.760   0.602   3.416
  240SOL    HW2  802   0.756   0.550   3.261
  241SOL     OW  803   0.973   0.890   3.434
  241SOL    HW1  804   1.019   0.806   3.405
  241SOL    HW2  805   0.917   0.924   3.359
  242SOL     OW  806   0.991   0.410   3.104
  242SOL    HW1  807   0.914   0.444   3.158
  242SOL    HW2  808   0.957   0.359   3.025
  243SOL     OW  809   1.041   0.701   2.291
  243SOL    HW1  810   1.067   0.697   2.387
  243SOL    HW2  811   0.956   0.650   2.277
  244SOL     OW  812   0.076   0.811   2.651
  244SOL    HW1  813   0.175   0.799   2.660
  244SOL    HW2  814   0.052   0.906   2.672
  245SOL     OW  815   0.130   1.821   3.433
  245SOL    HW1  816   0.120   1.806   3.532
  245SOL    HW2  817   0.044   1.857   3.397
  246SOL     OW  818   0.865   0.348   2.057
  246SOL    HW1  819   0.924   0.411   2.008
  246SOL    HW2  820   0.884   0.254   2.028
  247SOL     OW  821   1.362   1.144   2.407
  247SOL    HW1  822   1.445   1.115   2.359
  247SOL    HW2  823   1.313   1.211   2.351
  248SOL     OW  824   0.550   0.196   2.747
  248SOL    HW1  825   0.545   0.191   2.847
  248SOL    HW2  826   0.552   0.292   2.718
  249SOL     OW  827   1.008   1.456   2.339
  249SOL    HW1  828   0.962   1.528   2.287
  249SOL    HW2  829   1.004   1.476   2.437
  250SOL     OW  830   0.351   1.801   2.715
  250SOL    HW1  831   0.401   1.715   2.721
  250SOL    HW2  832   0.416   1.878   2.712
  251SOL     OW  833   1.795   1.066   2.735
  251SOL    HW1  834   1.733   1.051   2.659
  251SOL    HW2  835   1.743   1.077   2.820
  252SOL     OW  836   1.227   1.550   3.368
  252SOL    HW1  837   1.233   1.473   3.432
  252SOL    HW2  838   1.175   1.524   3.288
  253SOL     OW  839   0.321   0.943   2.104
  253SOL    HW1  840   0.403   0.982   2.062
  253SOL    HW2  841   0.294   0.861   2.055
  254SOL     OW  842   1.458   0.735   2.590
  254SOL    HW1  843   1.453   0.670   2.665
  254SOL    HW2  844   1.538   0.794   2.603
  255SOL     OW  845   0.461   1.266   3.589
  255SOL    HW1  846   0.411   1.267   3.503
  255SOL    HW2  847   0.398   1.248   3.665
  256SOL     OW  848   1.111   1.776   2.099
  256SOL    HW1  849   1.051   1.714   2.149
  256SOL    HW2  850   1.142   1.732   2.014
  257SOL     OW  851   0.202   0.285   3.360
  257SOL    HW1  852   0.122   0.345   3.347
  257SOL    HW2  853   0.192   0.236   3.446
  258SOL     OW  854   1.632   1.377   1.943
  258SOL    HW1  855   1.600   1.471   1.933
  258SOL    HW2  856   1.556   1.314   1.931
  259SOL     OW  857   0.464   1.743   2.185
  259SOL    HW1  858   0.497   1.782   2.271
  259SOL    HW2  859   0.540   1.736   2.120
  260SOL     OW  860   1.400   0.107   2.288
  260SOL    HW1  861   1.376   0.070   2.198
  260SOL    HW2  862   1.499   0.123   2.292
  261SOL     OW  863   0.249   1.785   3.103
  261SOL    HW1  864   0.306   1.720   3.153
  261SOL    HW2  865   0.233   1.752   3.010
  262SOL     OW  866   0.940   1.698   2.766
  262SOL    HW1  867   1.020   1.641   2.787
  262SOL    HW2  868   0.891   1.658   2.689
  263SOL     OW  869   0.382   0.700   2.342
  263SOL    HW1  870   0.427   0.610   2.339
  263SOL    HW2  871   0.288   0.689   2.375
  264SOL     OW  872   0.614   0.122   1.979
  264SOL    HW1  873   0.712   0.100   1.986
  264SOL    HW2  874   0.583   0.105   1.886
  265SOL     OW  875   0.888   1.514   3.057
  265SOL    HW1  876   0.865   1.489   2.963
  265SOL    HW2  877   0.949   1.445   3.096
  266SOL     OW  878   1.351   0.590   3.295
  266SOL    HW1  879   1.379   0.547   3.380
  266SOL    HW2  880   1.376   0.686   3.296
  267SOL     OW  881   0.803   1.402   2.786
  267SOL    HW1  882   0.893   1.416   2.744
  267SOL    HW2  883   0.732   1.404   2.715
  268SOL     OW  884   0.922   0.503   2.761
  268SOL    HW1  885   0.897   0.494   2.665
  268SOL    HW2  886   0.970   0.421   2.792
  269SOL     OW  887   0.539   0.064   2.374
  269SOL    HW1  888   0.458   0.065   2.432
  269SOL    HW2  889   0.542   0.147   2.319
  270SOL     OW  890   1.434   1.188   1.903
  270SOL    HW1  891   1.466   1.112   1.960
  270SOL    HW2  892   1.342   1.215   1.933
  271SOL     OW  893   0.297   0.035   2.033
  271SOL    HW1  894   0.346   0.119   2.012
  271SOL    HW2  895   0.359  -0.030   2.078
  272SOL     OW  896   0.935   0.236   2.342
  272SOL    HW1  897   0.887   0.277   2.264
  272SOL    HW2  898   1.034   0.234   2.323
  273SOL     OW  899   1.076   0.683   3.326
  273SOL    HW1  900   0.996   0.622   3.329
  273SOL    HW2  901   1.157   0.630   3.302
  274SOL     OW  902   1.227   1.570   2.655
  274SOL    HW1  903   1.248   1.644   2.590
  274SOL    HW2  904   1.295   1.570   2.728
  275SOL     OW  905   0.459   1.152   2.603
  275SOL    HW1  906   0.388   1.125   2.668
  275SOL    HW2  907   0.433   1.124   2.510
  276SOL     OW  908   1.271   1.797   2.453
  276SOL    HW1  909   1.315   1.861   2.389
  276SOL    HW2  910   1.221   1.849   2.523
  277SOL     OW  911   1.032   0.549   1.878
  277SOL    HW1  912   0.991   0.631   1.839
  277SOL    HW2  913   1.096   0.575   1.951
  278SOL     OW  914   0.078   0.556   3.248
  278SOL    HW1  915   0.170   0.555   3.207
  278SOL    HW2  916   0.072   0.630   3.315
  279SOL     OW  917   0.561   0.222   3.009
  279SOL    HW1  918   0.599   0.138   3.046
  279SOL    HW2  919   0.473   0.241   3.053
  280SOL     OW  920   0.866   0.454   2.504
  280SOL    HW1  921   0.834   0.526   2.442
  280SOL    HW2  922   0.890   0.373   2.451
  281SOL     OW  923   1.017   0.039   2.615
  281SOL    HW1  924   0.945   0.044   2.546
  281SOL    HW2  925   0.993  -0.030   2.684
  282SOL     OW  926   1.429   1.173   2.729
  282SOL    HW1  927   1.374   1.089   2.722
  282SOL    HW2  928   1.455   1.202   2.637
  283SOL     OW  929   1.466   0.590   2.854
  283SOL    HW1  930   1.436   0.495   2.861
  283SOL    HW2  931   1.539   0.606   2.920
  284SOL     OW  932   1.857   0.833   2.239
  284SOL    HW1  933   1.899   0.769   2.303
  284SOL    HW2  934   1.819   0.782   2.161
  285SOL     OW  935   0.488   1.385   2.036
  285SOL    HW1  936   0.401   1.370   2.083
  285SOL    HW2  937   0.471   1.411   1.941
  286SOL     OW  938   1.664   1.280   2.519
  286SOL    HW1  939   1.763   1.288   2.533
  286SOL    HW2  940   1.619   1.364   2.550
  287SOL     OW  941   1.390   0.575   1.940
  287SOL    HW1  942   1.336   0.554   2.021
  287SOL    HW2  943   1.481   0.534   1.949
  288SOL     OW  944   0.527   0.256   2.190
  288SOL    HW1  945   0.554   0.197   2.115
  288SOL    HW2  946   0.527   0.351   2.159
  289SOL     OW  947   1.754   1.223   3.450
  289SOL    HW1  948   1.845   1.184   3.437
  289SOL    HW2  949   1.762   1.319   3.474
  290SOL     OW  950   1.064   1.347   3.202
  290SOL    HW1  951   0.984   1.324   3.257
  290SOL    HW2  952   1.147   1.321   3.251
  291SOL     OW  953   1.111   1.195   2.962
  291SOL    HW1  954   1.071   1.239   3.043
  291SOL    HW2  955   1.070   1.232   2.879
  292SOL     OW  956   1.638   1.099   2.941
  292SOL    HW1  957   1.643   1.180   3.000
  292SOL    HW2  958   1.552   1.101   2.890
  293SOL     OW  959   0.915   0.089   3.264
  293SOL    HW1  960   0.940   0.069   3.169
  293SOL    HW2  961   0.987   0.145   3.306
  294SOL     OW  962   0.705   1.050   2.230
  294SOL    HW1  963   0.691   1.057   2.329
  294SOL    HW2  964   0.789   0.999   2.212
  295SOL     OW  965   0.410   0.813   3.113
  295SOL    HW1  966   0.496   0.825   3.163
  295SOL    HW2  967   0.368   0.726   3.140
  296SOL     OW  968   1.274   0.386   3.124
  296SOL    HW1  969   1.295   0.460   3.188
  296SOL    HW2  970   1.185   0.403   3.081
  297SOL     OW  971   0.064   1.564   3.193
  297SOL    HW1  972   0.018   1.646   3.159
  297SOL    HW2  973   0.162   1.583   3.202
  298SOL     OW  974   0.367   1.100   2.363
  298SOL    HW1  975   0.360   1.183   2.307
  298SOL    HW2  976   0.371   1.020   2.303
  299SOL     OW  977   0.566   0.537   2.727
  299SOL    HW1  978   0.578   0.603   2.653
  299SOL    HW2  979   0.612   0.571   2.810
  300SOL     OW  980   1.252   1.348   2.250
  300SOL    HW1  981   1.302   1.425   2.290
  300SOL    HW2  982   1.157   1.350   2.282
  301SOL     OW  983   1.272   1.445   3.004
  301SOL    HW1  984   1.319   1.458   3.091
  301SOL    HW2  985   1.206   1.371   3.013
  302SOL     OW  986   1.582   0.639   2.334
  302SOL    HW1  987   1.551   0.700   2.407
  302SOL    HW2  988   1.632   0.691   2.265
  303SOL     OW  989   0.354   1.510   3.191
  303SOL    HW1  990   0.333   1.466   3.104
  303SOL    HW2  991   0.451   1.536   3.194
  304SOL     OW  992   0.402   0.751   3.460
  304SOL    HW1  993   0.470   0.806   3.413
  304SOL    HW2  994   0.442   0.663   3.487
  305SOL     OW  995   1.587   0.779   3.532
  305SOL    HW1  996   1.495   0.817   3.527
  305SOL    HW2  997   1.647   0.826   3.467
  306SOL     OW  998   0.573   0.870   2.891
  306SOL    HW1  999   0.617   0.959   2.882
  306SOL    HW2 1000   0.510   0.870   2.968
  307SOL     OW 1001   1.360   0.862   2.907
  307SOL    HW1 1002   1.285   0.862   2.841
  307SOL    HW2 1003   1.397   0.770   2.916
  308SOL     OW 1004   1.209   0.525   2.137
  308SOL    HW1 1005   1.222   0.441   2.191
  308SOL    HW2 1006   1.180   0.599   2.197
  309SOL     OW 1007   0.307   0.213   3.093
  309SOL    HW1 1008   0.284   0.250   3.183
  309SOL    HW2 1009   0.277   0.118   3.087
  310SOL     OW 1010   0.037   1.310   3.144
  310SOL    HW1 1011   0.090   1.261   3.212
  310SOL    HW2 1012   0.059   1.408   3.149
  311SOL     OW 1013   0.732   0.634   2.926
  311SOL    HW1 1014   0.791   0.608   2.850
  311SOL    HW2 1015   0.704   0.730   2.915
  312SOL     OW 1016   0.307   0.063   2.480
  312SOL    HW1 1017   0.296   0.157   2.513
  312SOL    HW2 1018   0.302   0.000   2.557
  313SOL     OW 1019   1.622   0.367   2.236
  313SOL    HW1 1020   1.624   0.291   2.300
  313SOL    HW2 1021   1.574   0.444   2.276
  314SOL     OW 1022   1.023   0.766   2.828
  314SOL    HW1 1023   1.038   0.787   2.924
  314SOL    HW2 1024   0.993   0.671   2.819
  315SOL     OW 1025   1.859   1.518   3.467
  315SOL    HW1 1026   1.873   1.545   3.372
  315SOL    HW2 1027   1.942   1.540   3.520
  316SOL     OW 1028   1.540   0.274   1.987
  316SOL    HW1 1029   1.479   0.199   2.010
  316SOL    HW2 1030   1.562   0.326   2.070
  317SOL     OW 1031   1.303   0.838   1.904
  317SOL    HW1 1032   1.337   0.745   1.919
  317SOL    HW2 1033   1.321   0.865   1.809
  318SOL     OW 1034   1.068   1.333   2.711
  318SOL    HW1 1035   1.075   1.249   2.656
  318SOL    HW2 1036   1.130   1.402   2.675
  319SOL     OW 1037   0.319   0.810   2.811
  319SOL    HW1 1038   0.412   0.846   2.816
  319SOL    HW2 1039   0.313   0.725   2.863
  320SOL     OW 1040   0.339   0.509   2.868
  320SOL    HW1 1041   0.287   0.426   2.851
  320SOL    HW2 1042   0.416   0.514   2.804
  321SOL     OW 1043   1.160   0.207   3.339
  321SOL    HW1 1044   1.160   0.271   3.416
  321SOL    HW2 1045   1.188   0.255   3.256
  322SOL     OW 1046   0.008   1.326   2.062
  322SOL    HW1 1047  -0.085   1.347   2.031
  322SOL    HW2 1048   0.018   1.227   2.075
  323SOL     OW 1049   0.088   1.801   2.789
  323SOL    HW1 1050   0.046   1.715   2.762
  323SOL    HW2 1051   0.182   1.804   2.755
  324SOL     OW 1052   0.504   1.568   2.772
  324SOL    HW1 1053   0.570   1.642   2.781
  324SOL    HW2 1054   0.548   1.489   2.730
  325SOL     OW 1055   1.002   0.796   3.100
  325SOL    HW1 1056   1.043   0.764   3.186
  325SOL    HW2 1057   0.906   0.769   3.097
  326SOL     OW 1058   0.040   0.544   2.976
  326SOL    HW1 1059   0.125   0.511   2.935
  326SOL    HW2 1060   0.053   0.559   3.074
  327SOL     OW 1061   0.815   0.572   2.187
  327SOL    HW1 1062   0.822   0.483   2.141
  327SOL    HW2 1063   0.721   0.606   2.179
  328SOL     OW 1064   1.657   0.604   3.068
  328SOL    HW1 1065   1.619   0.535   3.130
  328SOL    HW2 1066   1.739   0.568   3.024
  329SOL     OW 1067   0.252   1.564   3.606
  329SOL    HW1 1068   0.222   1.621   3.682
  329SOL    HW2 1069   0.245   1.467   3.632
  330SOL     OW 1070   0.671   0.464   3.131
  330SOL    HW1 1071   0.637   0.375   3.101
  330SOL    HW2 1072   0.697   0.518   3.051
  331SOL     OW 1073   0.930   1.678   3.327
  331SOL    HW1 1074   0.906   1.660   3.232
  331SOL    HW2 1075   0.960   1.772   3.337
  332SOL     OW 1076   0.473   0.500   2.053
  332SOL    HW1 1077   0.534   0.580   2.057
  332SOL    HW2 1078   0.378   0.531   2.060
  333SOL     OW 1079   0.159   1.137   3.328
  333SOL    HW1 1080   0.181   1.076   3.404
  333SOL    HW2 1081   0.169   1.088   3.242
  334SOL     OW 1082   1.347   1.059   3.096
  334SOL    HW1 1083   1.371   0.996   3.022
  334SOL    HW2 1084   1.257   1.099   3.078
  335SOL     OW 1085   1.302   0.855   2.171
  335SOL    HW1 1086   1.216   0.824   2.213
  335SOL    HW2 1087   1.298   0.841   2.072
  336SOL     OW 1088   1.759   1.747   3.016
  336SOL    HW1 1089   1.820   1.777   2.943
  336SOL    HW2 1090   1.721   1.658   2.994
  337SOL     OW 1091   1.252   1.731   2.990
  337SOL    HW1 1092   1.336   1.736   2.936
  337SOL    HW2 1093   1.229   1.635   3.008
  338SOL     OW 1094   0.083   1.258   2.884
  338SOL    HW1 1095   0.078   1.257   2.984
  338SOL    HW2 1096   0.000   1.217   2.846
  339SOL     OW 1097   1.726   0.135   2.385
  339SOL    HW1 1098   1.799   0.118   2.318
  339SOL    HW2 1099   1.695   0.048   2.423
  340SOL     OW 1100   1.388   1.573   2.339
  340SOL    HW1 1101   1.455   1.585   2.265
  340SOL    HW2 1102   1.348   1.662   2.362
  341SOL     OW 1103   1.280   0.927   2.534
  341SOL    HW1 1104   1.340   0.846   2.536
  341SOL    HW2 1105   1.320   0.996   2.474
  342SOL     OW 1106   0.830   1.273   3.284
  342SOL    HW1 1107   0.825   1.306   3.379
  342SOL    HW2 1108   0.744   1.292   3.238
  343SOL     OW 1109   0.672   1.616   2.016
  343SOL    HW1 1110   0.681   1.626   1.917
  343SOL    HW2 1111   0.632   1.527   2.037
  344SOL     OW 1112   1.650   1.720   3.256
  344SOL    HW1 1113   1.703   1.730   3.172
  344SOL    HW2 1114   1.623   1.810   3.290
  345SOL     OW 1115   1.841   0.175   2.825
  345SOL    HW1 1116   1.880   0.090   2.789
  345SOL    HW2 1117   1.743   0.177   2.806
  346SOL     OW 1118   0.263   0.326   2.582
  346SOL    HW1 1119   0.184   0.377   2.548
  346SOL    HW2 1120   0.254   0.311   2.680
  347SOL     OW 1121   1.194   1.612   1.893
  347SOL    HW1 1122   1.200   1.519   1.930
  347SOL    HW2 1123   1.135   1.612   1.813
  348SOL     OW 1124   0.822   1.002   3.234
  348SOL    HW1 1125   0.862   1.001   3.142
  348SOL    HW2 1126   0.832   1.094   3.274
  349SOL     OW 1127   0.916   0.910   2.153
  349SOL    HW1 1128   0.979   0.948   2.085
  349SOL    HW2 1129   0.956   0.827   2.192
  350SOL     OW 1130   0.372   1.288   3.352
  350SOL    HW1 1131   0.359   1.381   3.318
  350SOL    HW2 1132   0.288   1.236   3.339
  351SOL     OW 1133   1.614   1.292   3.151
  351SOL    HW1 1134   1.674   1.295   3.231
  351SOL    HW2 1135   1.539   1.356   3.164
  352SOL     OW 1136   1.039   1.098   2.558
  352SOL    HW1 1137   0.969   1.051   2.612
  352SOL    HW2 1138   1.098   1.030   2.515
  353SOL     OW 1139   1.014   0.236   2.833
  353SOL    HW1 1140   1.006   0.200   2.740
  353SOL    HW2 1141   1.012   0.160   2.898
  354SOL     OW 1142   0.590   1.487   2.353
  354SOL    HW1 1143   0.632   1.429   2.283
  354SOL    HW2 1144   0.546   1.566   2.309
  355SOL     OW 1145   1.709   0.385   3.243
  355SOL    HW1 1146   1.782   0.454   3.247
  355SOL    HW2 1147   1.737   0.310   3.184
  356SOL     OW 1148   0.255   1.348   2.152
  356SOL    HW1 1149   0.159   1.349   2.125
  356SOL    HW2 1150   0.267   1.401   2.236
  357SOL     OW 1151   0.105   1.013   3.588
  357SOL    HW1 1152   0.028   0.980   3.642
  357SOL    HW2 1153   0.190   0.983   3.630
  358SOL     OW 1154   0.672   0.203   3.351
  358SOL    HW1 1155   0.762   0.187   3.311
  358SOL    HW2 1156   0.680   0.208   3.450
  359SOL     OW 1157   0.075   0.345   1.895
  359SOL    HW1 1158  -0.017   0.317   1.866
  359SOL    HW2 1159   0.106   0.422   1.839
  360SOL     OW 1160   1.440   0.856   3.260
  360SOL    HW1 1161   1.383   0.908   3.197
  360SOL    HW2 1162   1.536   0.868   3.236
  361SOL     OW 1163   0.072   0.166   2.180
  361SOL    HW1 1164   0.055   0.249   2.126
  361SOL    HW2 1165   0.162   0.129   2.158
  362SOL     OW 1166   1.183   1.335   1.981
  362SOL    HW1 1167   1.084   1.324   1.983
  362SOL    HW2 1168   1.217   1.350   2.074
  363SOL     OW 1169   0.613   0.842   3.293
  363SOL    HW1 1170   0.669   0.923   3.276
  363SOL    HW2 1171   0.672   0.762   3.296
  364SOL     OW 1172   1.493   1.767   2.821
  364SOL    HW1 1173   1.526   1.831   2.752
  364SOL    HW2 1174   1.559   1.761   2.896
  365SOL     OW 1175   0.716   0.565   3.570
  365SOL    HW1 1176   0.735   0.630   3.644
  365SOL    HW2 1177   0.776   0.485   3.579
  366SOL     OW 1178   0.390   1.741   3.422
  366SOL    HW1 1179   0.299   1.782   3.420
  366SOL    HW2 1180   0.383   1.647   3.454
  367SOL     OW 1181   1.674   0.883   3.116
  367SOL    HW1 1182   1.647   0.794   3.079
  367SOL    HW2 1183   1.675   0.951   3.043
  368SOL     OW 1184   1.225   0.325   2.311
  368SOL    HW1 1185   1.290   0.251   2.300
  368SOL    HW2 1186   1.245   0.375   2.395
  369SOL     OW 1187   0.594   0.745   2.514
  369SOL    HW1 1188   0.644   0.830   2.495
  369SOL    HW2 1189   0.506   0.747   2.466
  370SOL     OW 1190   1.730   0.934   3.379
  370SOL    HW1 1191   1.768   1.025   3.394
  370SOL    HW2 1192   1.722   0.917   3.280
  371SOL     OW 1193   0.859   1.374   1.878
  371SOL    HW1 1194   0.813   1.389   1.966
  371SOL    HW2 1195   0.903   1.459   1.848
  372SOL     OW 1196   0.661   1.790   2.815
  372SOL    HW1 1197   0.615   1.878   2.802
  372SOL    HW2 1198   0.760   1.802   2.808
  373SOL     OW 1199   0.859   0.956   2.723
  373SOL    HW1 1200   0.913   0.887   2.771
  373SOL    HW2 1201   0.827   1.025   2.789
  374SOL     OW 1202   1.083   0.984   1.949
  374SOL    HW1 1203   1.060   1.037   1.867
  374SOL    HW2 1204   1.164   0.928   1.930
  375SOL     OW 1205   1.861   1.569   2.713
  375SOL    HW1 1206   1.790   1.557   2.643
  375SOL    HW2 1207   1.862   1.490   2.773
  376SOL     OW 1208   0.079   1.240   2.515
  376SOL    HW1 1209   0.078   1.193   2.603
  376SOL    HW2 1210   0.161   1.212   2.464
  377SOL     OW 1211   0.672   1.391   3.486
  377SOL    HW1 1212   0.594   1.341   3.524
  377SOL    HW2 1213   0.669   1.486   3.517
  378SOL     OW 1214   1.824   0.192   3.089
  378SOL    HW1 1215   1.820   0.102   3.133
  378SOL    HW2 1216   1.827   0.181   2.990
  379SOL     OW 1217   0.428   0.424   2.382
  379SOL    HW1 1218   0.458   0.352   2.320
  379SOL    HW2 1219   0.389   0.384   2.465
  380SOL     OW 1220   1.705   1.487   2.966
  380SOL    HW1 1221   1.612   1.462   2.939
  380SOL    HW2 1222   1.731   1.437   3.048
  381SOL     OW 1223   0.317   0.547   3.142
  381SOL    HW1 1224   0.355   0.488   3.214
  381SOL    HW2 1225   0.357   0.521   3.054
  382SOL     OW 1226   0.812   1.586   2.549
  382SOL    HW1 1227   0.844   1.596   2.455
  382SOL    HW2 1228   0.733   1.524   2.551
  383SOL     OW 1229   1.424   0.214   2.974
  383SOL    HW1 1230   1.476   0.149   3.029
  383SOL    HW2 1231   1.375   0.277   3.035
  384SOL     OW 1232   1.001   0.034   3.016
  384SOL    HW1 1233   0.938  -0.038   2.985
  384SOL    HW2 1234   1.094  -0.002   3.016
  385SOL     OW 1235   0.770   1.330   2.163
  385SOL    HW1 1236   0.724   1.243   2.180
  385SOL    HW2 1237   0.861   1.327   2.204
  386SOL     OW 1238   0.618   1.567   3.146
  386SOL    HW1 1239   0.613   1.649   3.203
  386SOL    HW2 1240   0.707   1.564   3.101
  387SOL     OW 1241   1.352   0.052   2.030
  387SOL    HW1 1242   1.387   0.011   1.946
  387SOL    HW2 1243   1.262   0.014   2.050
  388SOL     OW 1244   1.300   0.453   2.553
  388SOL    HW1 1245   1.241   0.533   2.557
  388SOL    HW2 1246   1.315   0.418   2.646
  389SOL     OW 1247   1.593   0.221   2.744
  389SOL    HW1 1248   1.509   0.220   2.798
  389SOL    HW2 1249   1.595   0.304   2.688
  390SOL     OW 1250   0.039   1.077   2.162
  390SOL    HW1 1251   0.138   1.066   2.153
  390SOL    HW2 1252  -0.001   0.991   2.194
  391SOL     OW 1253   0.875   1.646   2.199
  391SOL    HW1 1254   0.798   1.611   2.145
  391SOL    HW2 1255   0.843   1.717   2.261
  392SOL     OW 1256   0.230   2.490   0.113
  392SOL    HW1 1257   0.137   2.488   0.150
  392SOL    HW2 1258   0.231   2.451   0.021
  393SOL     OW 1259   0.225   2.137   0.996
  393SOL    HW1 1260   0.260   2.120   1.088
  393SOL    HW2 1261   0.137   2.092   0.984
  394SOL     OW 1262   0.019   2.230   0.647
  394SOL    HW1 1263  -0.063   2.273   0.686
  394SOL    HW2 1264  -0.009   2.157   0.584
  395SOL     OW 1265   0.569   3.137   1.165
  395SOL    HW1 1266   0.476   3.130   1.128
  395SOL    HW2 1267   0.580   3.226   1.209
  396SOL     OW 1268   1.555   3.373   0.703
  396SOL    HW1 1269   1.498   3.357   0.784
  396SOL    HW2 1270   1.496   3.383   0.623
  397SOL     OW 1271   1.135   2.565   0.717
  397SOL    HW1 1272   1.192   2.643   0.692
  397SOL    HW2 1273   1.075   2.591   0.793
  398SOL     OW 1274   1.755   2.469   0.231
  398SOL    HW1 1275   1.743   2.456   0.132
  398SOL    HW2 1276   1.725   2.388   0.280
  399SOL     OW 1277   0.768   3.006   1.023
  399SOL    HW1 1278   0.690   3.023   1.083
  399SOL    HW2 1279   0.802   3.093   0.987
  400SOL     OW 1280   0.850   2.660   1.823
  400SOL    HW1 1281   0.846   2.736   1.888
  400SOL    HW2 1282   0.872   2.696   1.732
  401SOL     OW 1283   0.685   2.874   0.665
  401SOL    HW1 1284   0.754   2.858   0.735
  401SOL    HW2 1285   0.612   2.931   0.703
  402SOL     OW 1286   0.686   3.023   1.803
  402SOL    HW1 1287   0.746   3.102   1.817
  402SOL    HW2 1288   0.600   3.054   1.762
  403SOL     OW 1289   0.335   3.297   1.061
  403SOL    HW1 1290   0.257   3.266   1.008
  403SOL    HW2 1291   0.393   3.355   1.004
  404SOL     OW 1292   1.460   3.367   1.339
  404SOL    HW1 1293   1.484   3.461   1.365
  404SOL    HW2 1294   1.444   3.313   1.421
  405SOL     OW 1295   0.438   2.254   1.499
  405SOL    HW1 1296   0.520   2.198   1.508
  405SOL    HW2 1297   0.357   2.196   1.503
  406SOL     OW 1298   1.603   2.309   0.737
  406SOL    HW1 1299   1.529   2.355   0.687
  406SOL    HW2 1300   1.654   2.377   0.790
  407SOL     OW 1301   1.127   3.203   1.690
  407SOL    HW1 1302   1.174   3.203   1.778
  407SOL    HW2 1303   1.079   3.116   1.679
  408SOL     OW 1304   0.230   3.296   0.538
  408SOL    HW1 1305   0.204   3.392   0.538
  408SOL    HW2 1306   0.159   3.242   0.583
  409SOL     OW 1307   0.240   2.953   0.886
  409SOL    HW1 1308   0.254   2.869   0.938
  409SOL    HW2 1309   0.185   3.017   0.941
  410SOL     OW 1310   0.606   2.826   0.123
  410SOL    HW1 1311   0.613   2.910   0.069
  410SOL    HW2 1312   0.652   2.839   0.211
  411SOL     OW 1313   0.122   2.505   0.563
  411SOL    HW1 1314   0.077   2.417   0.580
  411SOL    HW2 1315   0.121   2.559   0.647
  412SOL     OW 1316   0.027   3.458   0.117
  412SOL    HW1 1317   0.008   3.362   0.138
  412SOL    HW2 1318  -0.006   3.516   0.192
  413SOL     OW 1319   1.689   2.784   0.612
  413SOL    HW1 1320   1.784   2.755   0.620
  413SOL    HW2 1321   1.681   2.849   0.537
  414SOL     OW 1322   1.641   2.970   0.432
  414SOL    HW1 1323   1.727   2.972   0.380
  414SOL    HW2 1324   1.655   3.017   0.520
  415SOL     OW 1325   0.113   2.599   1.597
  415SOL    HW1 1326   0.201   2.586   1.642
  415SOL    HW2 1327   0.100   2.696   1.575
  416SOL     OW 1328   0.613   3.227   0.726
  416SOL    HW1 1329   0.564   3.140   0.735
  416SOL    HW2 1330   0.590   3.270   0.639
  417SOL     OW 1331   1.293   3.090   1.423
  417SOL    HW1 1332   1.330   3.017   1.365
  417SOL    HW2 1333   1.345   3.095   1.508
  418SOL     OW 1334   0.809   1.866   0.502
  418SOL    HW1 1335   0.849   1.957   0.493
  418SOL    HW2 1336   0.709   1.874   0.508
  419SOL     OW 1337   0.197   2.838   1.264
  419SOL    HW1 1338   0.286   2.793   1.250
  419SOL    HW2 1339   0.124   2.773   1.245
  420SOL     OW 1340   1.525   2.861   0.190
  420SOL    HW1 1341   1.462   2.785   0.203
  420SOL    HW2 1342   1.573   2.879   0.276
  421SOL     OW 1343   0.317   2.113   1.801
  421SOL    HW1 1344   0.388   2.184   1.807
  421SOL    HW2 1345   0.229   2.152   1.829
  422SOL     OW 1346   1.466   3.279   0.953
  422SOL    HW1 1347   1.407   3.285   1.033
  422SOL    HW2 1348   1.451   3.191   0.907
  423SOL     OW 1349   0.598   2.591   0.270
  423SOL    HW1 1350   0.622   2.660   0.202
  423SOL    HW2 1351   0.520   2.624   0.324
  424SOL     OW 1352   1.281   2.207   0.944
  424SOL    HW1 1353   1.195   2.157   0.931
  424SOL    HW2 1354   1.343   2.153   1.000
  425SOL     OW 1355   1.576   3.524   0.307
  425SOL    HW1 1356   1.665   3.570   0.310
  425SOL    HW2 1357   1.555   3.500   0.212
  426SOL     OW 1358   0.807   2.467   1.465
  426SOL    HW1 1359   0.760   2.464   1.554
  426SOL    HW2 1360   0.756   2.412   1.399
  427SOL     OW 1361   1.394   2.331   1.674
  427SOL    HW1 1362   1.374   2.374   1.762
  427SOL    HW2 1363   1.472   2.269   1.683
  428SOL     OW 1364   0.973   2.752   1.572
  428SOL    HW1 1365   1.019   2.668   1.543
  428SOL    HW2 1366   0.917   2.786   1.497
  429SOL     OW 1367   0.991   2.272   1.242
  429SOL    HW1 1368   0.914   2.306   1.296
  429SOL    HW2 1369   0.957   2.221   1.163
  430SOL     OW 1370   1.041   2.563   0.429
  430SOL    HW1 1371   1.067   2.559   0.525
  430SOL    HW2 1372   0.956   2.512   0.415
  431SOL     OW 1373   0.076   2.673   0.789
  431SOL    HW1 1374   0.175   2.661   0.798
  431SOL    HW2 1375   0.052   2.768   0.810
  432SOL     OW 1376   0.865   2.210   0.195
  432SOL    HW1 1377   0.924   2.273   0.146
  432SOL    HW2 1378   0.884   2.116   0.166
  433SOL     OW 1379   1.719   2.447   1.831
  433SOL    HW1 1380   1.693   2.536   1.795
  433SOL    HW2 1381   1.717   2.379   1.758
  434SOL     OW 1382   1.362   3.006   0.545
  434SOL    HW1 1383   1.445   2.977   0.497
  434SOL    HW2 1384   1.313   3.073   0.489
  435SOL     OW 1385   0.550   2.058   0.885
  435SOL    HW1 1386   0.545   2.053   0.985
  435SOL    HW2 1387   0.552   2.154   0.856
  436SOL     OW 1388   1.008   3.318   0.477
  436SOL    HW1 1389   0.962   3.390   0.425
  436SOL    HW2 1390   1.004   3.338   0.575
  437SOL     OW 1391   1.795   2.928   0.873
  437SOL    HW1 1392   1.733   2.913   0.797
  437SOL    HW2 1393   1.743   2.939   0.958
  438SOL     OW 1394   1.227   3.412   1.506
  438SOL    HW1 1395   1.233   3.335   1.570
  438SOL    HW2 1396   1.175   3.386   1.426
  439SOL     OW 1397   0.321   2.805   0.242
  439SOL    HW1 1398   0.403   2.844   0.200
  439SOL    HW2 1399   0.294   2.723   0.193
  440SOL     OW 1400   1.458   2.597   0.728
  440SOL    HW1 1401   1.453   2.532   0.803
  440SOL    HW2 1402   1.538   2.656   0.741
  441SOL     OW 1403   0.461   3.128   1.727
  441SOL    HW1 1404   0.411   3.129   1.641
  441SOL    HW2 1405   0.398   3.110   1.803
  442SOL     OW 1406   0.202   2.147   1.498
  442SOL    HW1 1407   0.122   2.207   1.485
  442SOL    HW2 1408   0.192   2.098   1.584
  443SOL     OW 1409   1.632   3.239   0.081
  443SOL    HW1 1410   1.600   3.333   0.071
  443SOL    HW2 1411   1.556   3.176   0.069
  444SOL     OW 1412   1.400   1.969   0.426
  444SOL    HW1 1413   1.376   1.932   0.336
  444SOL    HW2 1414   1.499   1.985   0.430
  445SOL     OW 1415   0.382   2.562   0.480
  445SOL    HW1 1416   0.427   2.472   0.477
  445SOL    HW2 1417   0.288   2.551   0.513
  446SOL     OW 1418   1.547   2.084   1.729
  446SOL    HW1 1419   1.542   2.121   1.821
  446SOL    HW2 1420   1.475   2.015   1.717
  447SOL     OW 1421   0.614   1.984   0.117
  447SOL    HW1 1422   0.712   1.962   0.124
  447SOL    HW2 1423   0.583   1.967   0.024
  448SOL     OW 1424   0.781   2.126   1.749
  448SOL    HW1 1425   0.848   2.065   1.792
  448SOL    HW2 1426   0.708   2.145   1.814
  449SOL     OW 1427   0.888   3.376   1.195
  449SOL    HW1 1428   0.865   3.351   1.101
  449SOL    HW2 1429   0.949   3.307   1.234
  450SOL     OW 1430   1.351   2.452   1.433
  450SOL    HW1 1431   1.379   2.409   1.518
  450SOL    HW2 1432   1.376   2.548   1.434
  451SOL     OW 1433   0.803   3.264   0.924
  451SOL    HW1 1434   0.893   3.278   0.882
  451SOL    HW2 1435   0.732   3.266   0.853
  452SOL     OW 1436   0.922   2.365   0.899
  452SOL    HW1 1437   0.897   2.356   0.803
  452SOL    HW2 1438   0.970   2.283   0.930
  453SOL     OW 1439   0.539   1.926   0.512
  453SOL    HW1 1440   0.458   1.927   0.570
  453SOL    HW2 1441   0.542   2.009   0.457
  454SOL     OW 1442   1.434   3.050   0.041
  454SOL    HW1 1443   1.466   2.974   0.098
  454SOL    HW2 1444   1.342   3.077   0.071
  455SOL     OW 1445   0.297   1.897   0.171
  455SOL    HW1 1446   0.346   1.981   0.150
  455SOL    HW2 1447   0.359   1.832   0.216
  456SOL     OW 1448   0.935   2.098   0.480
  456SOL    HW1 1449   0.887   2.139   0.402
  456SOL    HW2 1450   1.034   2.096   0.461
  457SOL     OW 1451   1.076   2.545   1.464
  457SOL    HW1 1452   0.996   2.484   1.467
  457SOL    HW2 1453   1.157   2.492   1.440
  458SOL     OW 1454   1.227   3.432   0.793
  458SOL    HW1 1455   1.248   3.506   0.728
  458SOL    HW2 1456   1.295   3.432   0.866
  459SOL     OW 1457   0.459   3.014   0.741
  459SOL    HW1 1458   0.388   2.987   0.806
  459SOL    HW2 1459   0.433   2.986   0.648
  460SOL     OW 1460   1.032   2.411   0.016
  460SOL    HW1 1461   0.991   2.493  -0.023
  460SOL    HW2 1462   1.096   2.437   0.089
  461SOL     OW 1463   0.078   2.418   1.386
  461SOL    HW1 1464   0.170   2.417   1.345
  461SOL    HW2 1465   0.072   2.492   1.453
  462SOL     OW 1466   0.561   2.084   1.147
  462SOL    HW1 1467   0.599   2.000   1.184
  462SOL    HW2 1468   0.473   2.103   1.191
  463SOL     OW 1469   0.866   2.316   0.642
  463SOL    HW1 1470   0.834   2.388   0.580
  463SOL    HW2 1471   0.890   2.235   0.589
  464SOL     OW 1472   1.017   1.901   0.753
  464SOL    HW1 1473   0.945   1.906   0.684
  464SOL    HW2 1474   0.993   1.832   0.822
  465SOL     OW 1475   1.429   3.035   0.867
  465SOL    HW1 1476   1.374   2.951   0.860
  465SOL    HW2 1477   1.455   3.064   0.775
  466SOL     OW 1478   1.466   2.452   0.992
  466SOL    HW1 1479   1.436   2.357   0.999
  466SOL    HW2 1480   1.539   2.468   1.058
  467SOL     OW 1481   1.857   2.695   0.377
  467SOL    HW1 1482   1.899   2.631   0.441
  467SOL    HW2 1483   1.819   2.644   0.299
  468SOL     OW 1484   0.488   3.247   0.174
  468SOL    HW1 1485   0.401   3.232   0.221
  468SOL    HW2 1486   0.471   3.273   0.079
  469SOL     OW 1487   1.664   3.142   0.657
  469SOL    HW1 1488   1.763   3.150   0.671
  469SOL    HW2 1489   1.619   3.226   0.688
  470SOL     OW 1490   1.390   2.437   0.078
  470SOL    HW1 1491   1.336   2.416   0.159
  470SOL    HW2 1492   1.481   2.396   0.087
  471SOL     OW 1493   0.527   2.118   0.328
  471SOL    HW1 1494   0.554   2.059   0.253
  471SOL    HW2 1495   0.527   2.213   0.297
  472SOL     OW 1496   1.754   3.085   1.588
  472SOL    HW1 1497   1.845   3.046   1.575
  472SOL    HW2 1498   1.762   3.181   1.612
  473SOL     OW 1499   1.064   3.209   1.340
  473SOL    HW1 1500   0.984   3.186   1.395
  473SOL    HW2 1501   1.147   3.183   1.389
  474SOL     OW 1502   1.592   3.491   1.625
  474SOL    HW1 1503   1.619   3.525   1.535
  474SOL    HW2 1504   1.671   3.453   1.671
  475SOL     OW 1505   1.111   3.057   1.100
  475SOL    HW1 1506   1.071   3.101   1.181
  475SOL    HW2 1507   1.070   3.094   1.017
  476SOL     OW 1508   1.638   2.961   1.079
  476SOL    HW1 1509   1.643   3.042   1.138
  476SOL    HW2 1510   1.552   2.963   1.028
  477SOL     OW 1511   0.915   1.951   1.402
  477SOL    HW1 1512   0.940   1.931   1.307
  477SOL    HW2 1513   0.987   2.007   1.444
  478SOL     OW 1514   0.980   2.978   1.719
  478SOL    HW1 1515   0.881   2.984   1.729
  478SOL    HW2 1516   1.003   2.898   1.663
  479SOL     OW 1517   0.705   2.912   0.368
  479SOL    HW1 1518   0.691   2.919   0.467
  479SOL    HW2 1519   0.789   2.861   0.350
  480SOL     OW 1520   0.410   2.675   1.251
  480SOL    HW1 1521   0.496   2.687   1.301
  480SOL    HW2 1522   0.368   2.588   1.278
  481SOL     OW 1523   1.274   2.248   1.262
  481SOL    HW1 1524   1.295   2.322   1.326
  481SOL    HW2 1525   1.185   2.265   1.219
  482SOL     OW 1526   0.064   3.426   1.331
  482SOL    HW1 1527   0.018   3.508   1.297
  482SOL    HW2 1528   0.162   3.445   1.340
  483SOL     OW 1529   0.367   2.962   0.501
  483SOL    HW1 1530   0.360   3.045   0.445
  483SOL    HW2 1531   0.371   2.882   0.441
  484SOL     OW 1532   0.566   2.399   0.865
  484SOL    HW1 1533   0.578   2.465   0.791
  484SOL    HW2 1534   0.612   2.433   0.948
  485SOL     OW 1535   1.252   3.210   0.388
  485SOL    HW1 1536   1.302   3.287   0.428
  485SOL    HW2 1537   1.157   3.212   0.420
  486SOL     OW 1538   1.272   3.307   1.142
  486SOL    HW1 1539   1.319   3.320   1.229
  486SOL    HW2 1540   1.206   3.233   1.151
  487SOL     OW 1541   1.582   2.501   0.472
  487SOL    HW1 1542   1.551   2.562   0.545
  487SOL    HW2 1543   1.632   2.553   0.403
  488SOL     OW 1544   0.354   3.372   1.329
  488SOL    HW1 1545   0.333   3.328   1.242
  488SOL    HW2 1546   0.451   3.398   1.332
  489SOL     OW 1547   0.402   2.613   1.598
  489SOL    HW1 1548   0.470   2.668   1.551
  489SOL    HW2 1549   0.442   2.525   1.625
  490SOL     OW 1550   1.587   2.641   1.670
  490SOL    HW1 1551   1.495   2.679   1.665
  490SOL    HW2 1552   1.647   2.688   1.605
  491SOL     OW 1553   1.013   1.967   1.770
  491SOL    HW1 1554   1.019   2.052   1.718
  491SOL    HW2 1555   1.045   1.891   1.713
  492SOL     OW 1556   0.504   1.912   1.740
  492SOL    HW1 1557   0.462   1.855   1.670
  492SOL    HW2 1558   0.438   1.981   1.772
  493SOL     OW 1559   0.573   2.732   1.029
  493SOL    HW1 1560   0.617   2.821   1.020
  493SOL    HW2 1561   0.510   2.732   1.106
  494SOL     OW 1562   1.360   2.724   1.045
  494SOL    HW1 1563   1.285   2.724   0.979
  494SOL    HW2 1564   1.397   2.632   1.054
  495SOL     OW 1565   1.209   2.387   0.275
  495SOL    HW1 1566   1.222   2.303   0.329
  495SOL    HW2 1567   1.180   2.461   0.335
  496SOL     OW 1568   0.307   2.075   1.231
  496SOL    HW1 1569   0.284   2.112   1.321
  496SOL    HW2 1570   0.277   1.980   1.225
  497SOL     OW 1571   0.037   3.172   1.282
  497SOL    HW1 1572   0.090   3.123   1.350
  497SOL    HW2 1573   0.059   3.270   1.287
  498SOL     OW 1574   0.732   2.496   1.064
  498SOL    HW1 1575   0.791   2.470   0.988
  498SOL    HW2 1576   0.704   2.592   1.053
  499SOL     OW 1577   1.728   2.797   1.854
  499SOL    HW1 1578   1.682   2.790   1.765
  499SOL    HW2 1579   1.666   2.841   1.920
  500SOL     OW 1580   0.307   1.925   0.618
  500SOL    HW1 1581   0.296   2.019   0.651
  500SOL    HW2 1582   0.302   1.862   0.695
  501SOL     OW 1583   1.622   2.229   0.374
  501SOL    HW1 1584   1.624   2.153   0.438
  501SOL    HW2 1585   1.574   2.306   0.414
  502SOL     OW 1586   1.023   2.628   0.966
  502SOL    HW1 1587   1.038   2.649   1.062
  502SOL    HW2 1588   0.993   2.533   0.957
  503SOL     OW 1589   0.980   3.435   1.700
  503SOL    HW1 1590   0.960   3.479   1.612
  503SOL    HW2 1591   1.019   3.344   1.684
  504SOL     OW 1592   1.859   3.380   1.605
  504SOL    HW1 1593   1.873   3.407   1.510
  504SOL    HW2 1594   1.942   3.402   1.658
  505SOL     OW 1595   0.350   2.760   1.804
  505SOL    HW1 1596   0.426   2.804   1.852
  505SOL    HW2 1597   0.385   2.713   1.722
  506SOL     OW 1598   1.540   2.136   0.125
  506SOL    HW1 1599   1.479   2.061   0.148
  506SOL    HW2 1600   1.562   2.188   0.208
  507SOL     OW 1601   1.303   2.700   0.042
  507SOL    HW1 1602   1.337   2.607   0.057
  507SOL    HW2 1603   1.321   2.727  -0.053
  508SOL     OW 1604   1.068   3.195   0.849
  508SOL    HW1 1605   1.075   3.111   0.794
  508SOL    HW2 1606   1.130   3.264   0.813
  509SOL     OW 1607   0.319   2.672   0.949
  509SOL    HW1 1608   0.412   2.708   0.954
  509SOL    HW2 1609   0.313   2.587   1.001
  510SOL     OW 1610   0.339   2.371   1.006
  510SOL    HW1 1611   0.287   2.288   0.989
  510SOL    HW2 1612   0.416   2.376   0.942
  511SOL     OW 1613   1.138   2.242   1.678
  511SOL    HW1 1614   1.093   2.305   1.742
  511SOL    HW2 1615   1.231   2.273   1.661
  512SOL     OW 1616   1.160   2.069   1.477
  512SOL    HW1 1617   1.160   2.133   1.554
  512SOL    HW2 1618   1.188   2.117   1.394
  513SOL     OW 1619   0.008   3.188   0.200
  513SOL    HW1 1620  -0.085   3.209   0.169
  513SOL    HW2 1621   0.018   3.089   0.213
  514SOL     OW 1622   0.088   3.663   0.927
  514SOL    HW1 1623   0.046   3.577   0.900
  514SOL    HW2 1624   0.182   3.666   0.893
  515SOL     OW 1625   0.504   3.430   0.910
  515SOL    HW1 1626   0.570   3.504   0.919
  515SOL    HW2 1627   0.548   3.351   0.868
  516SOL     OW 1628   1.002   2.658   1.238
  516SOL    HW1 1629   1.043   2.626   1.324
  516SOL    HW2 1630   0.906   2.631   1.235
  517SOL     OW 1631   0.040   2.406   1.114
  517SOL    HW1 1632   0.125   2.373   1.073
  517SOL    HW2 1633   0.053   2.421   1.212
  518SOL     OW 1634   0.189   2.382   1.722
  518SOL    HW1 1635   0.248   2.342   1.652
  518SOL    HW2 1636   0.131   2.453   1.681
  519SOL     OW 1637   1.369   2.812   1.660
  519SOL    HW1 1638   1.408   2.901   1.680
  519SOL    HW2 1639   1.379   2.792   1.563
  520SOL     OW 1640   0.815   2.434   0.325
  520SOL    HW1 1641   0.822   2.345   0.279
  520SOL    HW2 1642   0.721   2.468   0.317
  521SOL     OW 1643   1.657   2.466   1.206
  521SOL    HW1 1644   1.619   2.397   1.268
  521SOL    HW2 1645   1.739   2.430   1.162
  522SOL     OW 1646   0.252   3.426   1.744
  522SOL    HW1 1647   0.222   3.483   1.820
  522SOL    HW2 1648   0.245   3.329   1.770
  523SOL     OW 1649   0.671   2.326   1.269
  523SOL    HW1 1650   0.637   2.237   1.239
  523SOL    HW2 1651   0.697   2.380   1.189
  524SOL     OW 1652   0.473   2.362   0.191
  524SOL    HW1 1653   0.534   2.442   0.195
  524SOL    HW2 1654   0.378   2.393   0.198
  525SOL     OW 1655   0.159   2.999   1.466
  525SOL    HW1 1656   0.181   2.938   1.542
  525SOL    HW2 1657   0.169   2.950   1.380
  526SOL     OW 1658   1.347   2.921   1.234
  526SOL    HW1 1659   1.371   2.858   1.160
  526SOL    HW2 1660   1.257   2.961   1.216
  527SOL     OW 1661   1.302   2.717   0.309
  527SOL    HW1 1662   1.216   2.686   0.351
  527SOL    HW2 1663   1.298   2.703   0.210
  528SOL     OW 1664   1.252   3.593   1.128
  528SOL    HW1 1665   1.336   3.598   1.074
  528SOL    HW2 1666   1.229   3.497   1.146
  529SOL     OW 1667   0.083   3.120   1.022
  529SOL    HW1 1668   0.078   3.119   1.122
  529SOL    HW2 1669   0.000   3.079   0.984
  530SOL     OW 1670   0.903   1.948   0.133
  530SOL    HW1 1671   0.954   1.949   0.047
  530SOL    HW2 1672   0.959   1.906   0.204
  531SOL     OW 1673   1.726   1.997   0.523
  531SOL    HW1 1674   1.799   1.980   0.456
  531SOL    HW2 1675   1.695   1.910   0.561
  532SOL     OW 1676   1.388   3.435   0.477
  532SOL    HW1 1677   1.455   3.447   0.403
  532SOL    HW2 1678   1.348   3.524   0.500
  533SOL     OW 1679   0.130   3.656   1.851
  533SOL    HW1 1680   0.089   3.582   1.904
  533SOL    HW2 1681   0.194   3.707   1.909
  534SOL     OW 1682   1.280   2.789   0.672
  534SOL    HW1 1683   1.340   2.708   0.674
  534SOL    HW2 1684   1.320   2.858   0.612
  535SOL     OW 1685   0.830   3.135   1.422
  535SOL    HW1 1686   0.825   3.168   1.517
  535SOL    HW2 1687   0.744   3.154   1.376
  536SOL     OW 1688   0.672   3.478   0.154
  536SOL    HW1 1689   0.681   3.488   0.055
  536SOL    HW2 1690   0.632   3.389   0.175
  537SOL     OW 1691   1.841   2.037   0.963
  537SOL    HW1 1692   1.880   1.952   0.927
  537SOL    HW2 1693   1.743   2.039   0.944
  538SOL     OW 1694   0.263   2.188   0.720
  538SOL    HW1 1695   0.184   2.239   0.686
  538SOL    HW2 1696   0.254   2.173   0.818
  539SOL     OW 1697   1.194   3.474   0.031
  539SOL    HW1 1698   1.200   3.381   0.068
  539SOL    HW2 1699   1.135   3.474  -0.049
  540SOL     OW 1700   0.822   2.864   1.372
  540SOL    HW1 1701   0.862   2.863   1.280
  540SOL    HW2 1702   0.832   2.956   1.412
  541SOL     OW 1703   0.916   2.772   0.291
  541SOL    HW1 1704   0.979   2.810   0.223
  541SOL    HW2 1705   0.956   2.689   0.330
  542SOL     OW 1706   0.372   3.150   1.490
  542SOL    HW1 1707   0.359   3.243   1.456
  542SOL    HW2 1708   0.288   3.098   1.477
  543SOL     OW 1709   1.614   3.154   1.289
  543SOL    HW1 1710   1.674   3.157   1.369
  543SOL    HW2 1711   1.539   3.218   1.302
  544SOL     OW 1712   1.039   2.960   0.696
  544SOL    HW1 1713   0.969   2.913   0.750
  544SOL    HW2 1714   1.098   2.892   0.653
  545SOL     OW 1715   1.014   2.098   0.971
  545SOL    HW1 1716   1.006   2.062   0.878
  545SOL    HW2 1717   1.012   2.022   1.036
  546SOL     OW 1718   0.590   3.349   0.491
  546SOL    HW1 1719   0.632   3.291   0.421
  546SOL    HW2 1720   0.546   3.428   0.447
  547SOL     OW 1721   1.709   2.247   1.381
  547SOL    HW1 1722   1.782   2.316   1.385
  547SOL    HW2 1723   1.737   2.172   1.322
  548SOL     OW 1724   0.255   3.210   0.290
  548SOL    HW1 1725   0.159   3.211   0.263
  548SOL    HW2 1726   0.267   3.263   0.374
  549SOL     OW 1727   0.105   2.875   1.726
  549SOL    HW1 1728   0.028   2.842   1.780
  549SOL    HW2 1729   0.190   2.845   1.768
  550SOL     OW 1730   0.672   2.065   1.489
  550SOL    HW1 1731   0.762   2.049   1.449
  550SOL    HW2 1732   0.680   2.070   1.588
  551SOL     OW 1733   0.075   2.207   0.033
  551SOL    HW1 1734  -0.017   2.179   0.004
  551SOL    HW2 1735   0.106   2.284  -0.023
  552SOL     OW 1736   1.440   2.718   1.398
  552SOL    HW1 1737   1.383   2.770   1.335
  552SOL    HW2 1738   1.536   2.730   1.374
  553SOL     OW 1739   0.072   2.028   0.318
  553SOL    HW1 1740   0.055   2.111   0.264
  553SOL    HW2 1741   0.162   1.991   0.296
  554SOL     OW 1742   1.183   3.197   0.119
  554SOL    HW1 1743   1.084   3.186   0.121
  554SOL    HW2 1744   1.217   3.212   0.212
  555SOL     OW 1745   0.613   2.704   1.431
  555SOL    HW1 1746   0.669   2.785   1.414
  555SOL    HW2 1747   0.672   2.624   1.434
  556SOL     OW 1748   0.716   2.427   1.708
  556SOL    HW1 1749   0.735   2.492   1.782
  556SOL    HW2 1750   0.776   2.347   1.717
  557SOL     OW 1751   1.450   3.082   1.633
  557SOL    HW1 1752   1.441   3.072   1.732
  557SOL    HW2 1753   1.546   3.075   1.607
  558SOL     OW 1754   1.674   2.745   1.254
  558SOL    HW1 1755   1.647   2.656   1.217
  558SOL    HW2 1756   1.675   2.813   1.181
  559SOL     OW 1757   1.225   2.187   0.449
  559SOL    HW1 1758   1.290   2.113   0.438
  559SOL    HW2 1759   1.245   2.237   0.533
  560SOL     OW 1760   0.594   2.607   0.652
  560SOL    HW1 1761   0.644   2.692   0.633
  560SOL    HW2 1762   0.506   2.609   0.604
  561SOL     OW 1763   1.777   2.204   1.642
  561SOL    HW1 1764   1.760   2.235   1.548
  561SOL    HW2 1765   1.693   2.167   1.680
  562SOL     OW 1766   1.730   2.796   1.517
  562SOL    HW1 1767   1.768   2.887   1.532
  562SOL    HW2 1768   1.722   2.779   1.418
  563SOL     OW 1769   0.859   3.236   0.016
  563SOL    HW1 1770   0.813   3.251   0.104
  563SOL    HW2 1771   0.903   3.321  -0.014
  564SOL     OW 1772   0.859   2.818   0.861
  564SOL    HW1 1773   0.913   2.749   0.909
  564SOL    HW2 1774   0.827   2.887   0.927
  565SOL     OW 1775   1.083   2.846   0.087
  565SOL    HW1 1776   1.060   2.899   0.005
  565SOL    HW2 1777   1.164   2.790   0.068
  566SOL     OW 1778   1.861   3.431   0.851
  566SOL    HW1 1779   1.790   3.419   0.781
  566SOL    HW2 1780   1.862   3.352   0.911
  567SOL     OW 1781   0.221   3.176   1.844
  567SOL    HW1 1782   0.156   3.103   1.823
  567SOL    HW2 1783   0.225   3.190   1.942
  568SOL     OW 1784   0.079   3.102   0.653
  568SOL    HW1 1785   0.078   3.055   0.741
  568SOL    HW2 1786   0.161   3.074   0.602
  569SOL     OW 1787   0.672   3.253   1.624
  569SOL    HW1 1788   0.594   3.203   1.662
  569SOL    HW2 1789   0.669   3.348   1.655
  570SOL     OW 1790   0.428   2.286   0.520
  570SOL    HW1 1791   0.458   2.214   0.458
  570SOL    HW2 1792   0.389   2.246   0.603
  571SOL     OW 1793   1.705   3.349   1.104
  571SOL    HW1 1794   1.612   3.324   1.077
  571SOL    HW2 1795   1.731   3.299   1.186
  572SOL     OW 1796   0.317   2.409   1.280
  572SOL    HW1 1797   0.355   2.350   1.352
  572SOL    HW2 1798   0.357   2.383   1.192
  573SOL     OW 1799   0.812   3.448   0.687
  573SOL    HW1 1800   0.844   3.458   0.593
  573SOL    HW2 1801   0.733   3.386   0.689
  574SOL     OW 1802   1.424   2.076   1.112
  574SOL    HW1 1803   1.476   2.011   1.167
  574SOL    HW2 1804   1.375   2.139   1.173
  575SOL     OW 1805   1.001   1.896   1.154
  575SOL    HW1 1806   0.938   1.824   1.123
  575SOL    HW2 1807   1.094   1.860   1.154
  576SOL     OW 1808   0.770   3.192   0.301
  576SOL    HW1 1809   0.724   3.105   0.318
  576SOL    HW2 1810   0.861   3.189   0.342
  577SOL     OW 1811   0.618   3.429   1.284
  577SOL    HW1 1812   0.613   3.511   1.341
  577SOL    HW2 1813   0.707   3.426   1.239
  578SOL     OW 1814   1.352   1.914   0.168
  578SOL    HW1 1815   1.387   1.873   0.084
  578SOL    HW2 1816   1.262   1.876   0.188
  579SOL     OW 1817   1.300   2.315   0.691
  579SOL    HW1 1818   1.241   2.395   0.695
  579SOL    HW2 1819   1.315   2.280   0.784
  580SOL     OW 1820   1.593   2.083   0.882
  580SOL    HW1 1821   1.509   2.082   0.936
  580SOL    HW2 1822   1.595   2.166   0.826
  581SOL     OW 1823   0.039   2.939   0.300
  581SOL    HW1 1824   0.138   2.928   0.291
  581SOL    HW2 1825  -0.001   2.853   0.332
  582SOL     OW 1826   0.230   2.490   1.975
  582SOL    HW1 1827   0.137   2.488   2.012
  582SOL    HW2 1828   0.231   2.451   1.883
  583SOL     OW 1829   0.225   2.137   2.858
  583SOL    HW1 1830   0.260   2.120   2.950
  583SOL    HW2 1831   0.137   2.092   2.846
  584SOL     OW 1832   0.019   2.230   2.509
  584SOL    HW1 1833  -0.063   2.273   2.548
  584SOL    HW2 1834  -0.009   2.157   2.446
  585SOL     OW 1835   0.569   3.137   3.027
  585SOL    HW1 1836   0.476   3.130   2.990
  585SOL    HW2 1837   0.580   3.226   3.071
  586SOL     OW 1838   1.555   3.373   2.565
  586SOL    HW1 1839   1.498   3.357   2.646
  586SOL    HW2 1840   1.496   3.383   2.485
  587SOL     OW 1841   1.135   2.565   2.579
  587SOL    HW1 1842   1.192   2.643   2.554
  587SOL    HW2 1843   1.075   2.591   2.655
  588SOL     OW 1844   1.755   2.469   2.093
  588SOL    HW1 1845   1.743   2.456   1.994
  588SOL    HW2 1846   1.725   2.388   2.142
  589SOL     OW 1847   0.768   3.006   2.885
  589SOL    HW1 1848   0.690   3.023   2.945
  589SOL    HW2 1849   0.802   3.093   2.849
  590SOL     OW 1850   0.685   2.874   2.527
  590SOL    HW1 1851   0.754   2.858   2.597
  590SOL    HW2 1852   0.612   2.931   2.565
  591SOL     OW 1853   0.335   3.297   2.923
  591SOL    HW1 1854   0.257   3.266   2.870
  591SOL    HW2 1855   0.393   3.355   2.866
  592SOL     OW 1856   1.460   3.367   3.201
  592SOL    HW1 1857   1.484   3.461   3.227
  592SOL    HW2 1858   1.444   3.313   3.283
  593SOL     OW 1859   0.438   2.254   3.361
  593SOL    HW1 1860   0.520   2.198   3.370
  593SOL    HW2 1861   0.357   2.196   3.365
  594SOL     OW 1862   1.603   2.309   2.599
  594SOL    HW1 1863   1.529   2.355   2.549
  594SOL    HW2 1864   1.654   2.377   2.652
  595SOL     OW 1865   0.230   3.296   2.400
  595SOL    HW1 1866   0.204   3.392   2.400
  595SOL    HW2 1867   0.159   3.242   2.445
  596SOL     OW 1868   0.240   2.953   2.748
  596SOL    HW1 1869   0.254   2.869   2.800
  596SOL    HW2 1870   0.185   3.017   2.803
  597SOL     OW 1871   0.606   2.826   1.985
  597SOL    HW1 1872   0.613   2.910   1.931
  597SOL    HW2 1873   0.652   2.839   2.073
  598SOL     OW 1874   1.594   1.976   3.342
  598SOL    HW1 1875   1.576   2.043   3.270
  598SOL    HW2 1876   1.591   2.022   3.431
  599SOL     OW 1877   0.122   2.505   2.425
  599SOL    HW1 1878   0.077   2.417   2.442
  599SOL    HW2 1879   0.121   2.559   2.509
  600SOL     OW 1880   0.027   3.458   1.979
  600SOL    HW1 1881   0.008   3.362   2.000
  600SOL    HW2 1882  -0.006   3.516   2.054
  601SOL     OW 1883   1.689   2.784   2.474
  601SOL    HW1 1884   1.784   2.755   2.482
  601SOL    HW2 1885   1.681   2.849   2.399
  602SOL     OW 1886   1.641   2.970   2.294
  602SOL    HW1 1887   1.727   2.972   2.242
  602SOL    HW2 1888   1.655   3.017   2.382
  603SOL     OW 1889   0.113   2.599   3.459
  603SOL    HW1 1890   0.201   2.586   3.504
  603SOL    HW2 1891   0.100   2.696   3.437
  604SOL     OW 1892   0.613   3.227   2.588
  604SOL    HW1 1893   0.564   3.140   2.597
  604SOL    HW2 1894   0.590   3.270   2.501
  605SOL     OW 1895   1.293   3.090   3.285
  605SOL    HW1 1896   1.330   3.017   3.227
  605SOL    HW2 1897   1.345   3.095   3.370
  606SOL     OW 1898   0.809   1.866   2.364
  606SOL    HW1 1899   0.849   1.957   2.355
  606SOL    HW2 1900   0.709   1.874   2.370
  607SOL     OW 1901   0.197   2.838   3.126
  607SOL    HW1 1902   0.286   2.793   3.112
  607SOL    HW2 1903   0.124   2.773   3.107
  608SOL     OW 1904   1.525   2.861   2.052
  608SOL    HW1 1905   1.462   2.785   2.065
  608SOL    HW2 1906   1.573   2.879   2.138
  609SOL     OW 1907   1.466   3.279   2.815
  609SOL    HW1 1908   1.407   3.285   2.895
  609SOL    HW2 1909   1.451   3.191   2.769
  610SOL     OW 1910   0.598   2.591   2.132
  610SOL    HW1 1911   0.622   2.660   2.064
  610SOL    HW2 1912   0.520   2.624   2.186
  611SOL     OW 1913   1.281   2.207   2.806
  611SOL    HW1 1914   1.195   2.157   2.793
  611SOL    HW2 1915   1.343   2.153   2.862
  612SOL     OW 1916   1.576   3.524   2.169
  612SOL    HW1 1917   1.665   3.570   2.172
  612SOL    HW2 1918   1.555   3.500   2.074
  613SOL     OW 1919   0.807   2.467   3.327
  613SOL    HW1 1920   0.760   2.464   3.416
  613SOL    HW2 1921   0.756   2.412   3.261
  614SOL     OW 1922   0.973   2.752   3.434
  614SOL    HW1 1923   1.019   2.668   3.405
  614SOL    HW2 1924   0.917   2.786   3.359
  615SOL     OW 1925   0.991   2.272   3.104
  615SOL    HW1 1926   0.914   2.306   3.158
  615SOL    HW2 1927   0.957   2.221   3.025
  616SOL     OW 1928   1.041   2.563   2.291
  616SOL    HW1 1929   1.067   2.559   2.387
  616SOL    HW2 1930   0.956   2.512   2.277
  617SOL     OW 1931   0.076   2.673   2.651
  617SOL    HW1 1932   0.175   2.661   2.660
  617SOL    HW2 1933   0.052   2.768   2.672
  618SOL     OW 1934   0.865   2.210   2.057
  618SOL    HW1 1935   0.924   2.273   2.008
  618SOL    HW2 1936   0.884   2.116   2.028
  619SOL     OW 1937   1.362   3.006   2.407
  619SOL    HW1 1938   1.445   2.977   2.359
  619SOL    HW2 1939   1.313   3.073   2.351
  620SOL     OW 1940   0.550   2.058   2.747
  620SOL    HW1 1941   0.545   2.053   2.847
  620SOL    HW2 1942   0.552   2.154   2.718
  621SOL     OW 1943   1.008   3.318   2.339
  621SOL    HW1 1944   0.962   3.390   2.287
  621SOL    HW2 1945   1.004   3.338   2.437
  622SOL     OW 1946   1.795   2.928   2.735
  622SOL    HW1 1947   1.733   2.913   2.659
  622SOL    HW2 1948   1.743   2.939   2.820
  623SOL     OW 1949   1.227   3.412   3.368
  623SOL    HW1 1950   1.233   3.335   3.432
  623SOL    HW2 1951   1.175   3.386   3.288
  624SOL     OW 1952   0.321   2.805   2.104
  624SOL    HW1 1953   0.403   2.844   2.062
  624SOL    HW2 1954   0.294   2.723   2.055
  625SOL     OW 1955   1.458   2.597   2.590
  625SOL    HW1 1956   1.453   2.532   2.665
  625SOL    HW2 1957   1.538   2.656   2.603
  626SOL     OW 1958   0.461   3.128   3.589
  626SOL    HW1 1959   0.411   3.129   3.503
  626SOL    HW2 1960   0.398   3.110   3.665
  627SOL     OW 1961   0.202   2.147   3.360
  627SOL    HW1 1962   0.122   2.207   3.347
  627SOL    HW2 1963   0.192   2.098   3.446
  628SOL     OW 1964   1.632   3.239   1.943
  628SOL    HW1 1965   1.600   3.333   1.933
  628SOL    HW2 1966   1.556   3.176   1.931
  629SOL     OW 1967   0.382   2.562   2.342
  629SOL    HW1 1968   0.427   2.472   2.339
  629SOL    HW2 1969   0.288   2.551   2.375
  630SOL     OW 1970   0.614   1.984   1.979
  630SOL    HW1 1971   0.712   1.962   1.986
  630SOL    HW2 1972   0.583   1.967   1.886
  631SOL     OW 1973   0.888   3.376   3.057
  631SOL    HW1 1974   0.865   3.351   2.963
  631SOL    HW2 1975   0.949   3.307   3.096
  632SOL     OW 1976   1.351   2.452   3.295
  632SOL    HW1 1977   1.379   2.409   3.380
  632SOL    HW2 1978   1.376   2.548   3.296
  633SOL     OW 1979   0.803   3.264   2.786
  633SOL    HW1 1980   0.893   3.278   2.744
  633SOL    HW2 1981   0.732   3.266   2.715
  634SOL     OW 1982   0.922   2.365   2.761
  634SOL    HW1 1983   0.897   2.356   2.665
  634SOL    HW2 1984   0.970   2.283   2.792
  635SOL     OW 1985   0.539   1.926   2.374
  635SOL    HW1 1986   0.458   1.927   2.432
  635SOL    HW2 1987   0.542   2.009   2.319
  636SOL     OW 1988   1.434   3.050   1.903
  636SOL    HW1 1989   1.466   2.974   1.960
  636SOL    HW2 1990   1.342   3.077   1.933
  637SOL     OW 1991   0.297   1.897   2.033
  637SOL    HW1 1992   0.346   1.981   2.012
  637SOL    HW2 1993   0.359   1.832   2.078
  638SOL     OW 1994   0.935   2.098   2.342
  638SOL    HW1 1995   0.887   2.139   2.264
  638SOL    HW2 1996   1.034   2.096   2.323
  639SOL     OW 1997   1.076   2.545   3.326
  639SOL    HW1 1998   0.996   2.484   3.329
  639SOL    HW2 1999   1.157   2.492   3.302
  640SOL     OW 2000   1.227   3.432   2.655
  640SOL    HW1 2001   1.248   3.506   2.590
  640SOL    HW2 2002   1.295   3.432   2.728
  641SOL     OW 2003   0.459   3.014   2.603
  641SOL    HW1 2004   0.388   2.987   2.668
  641SOL    HW2 2005   0.433   2.986   2.510
  642SOL     OW 2006   1.032   2.411   1.878
  642SOL    HW1 2007   0.991   2.493   1.839
  642SOL    HW2 2008   1.096   2.437   1.951
  643SOL     OW 2009   0.078   2.418   3.248
  643SOL    HW1 2010   0.170   2.417   3.207
  643SOL    HW2 2011   0.072   2.492   3.315
  644SOL     OW 2012   0.561   2.084   3.009
  644SOL    HW1 2013   0.599   2.000   3.046
  644SOL    HW2 2014   0.473   2.103   3.053
  645SOL     OW 2015   0.866   2.316   2.504
  645SOL    HW1 2016   0.834   2.388   2.442
  645SOL    HW2 2017   0.890   2.235   2.451
  646SOL     OW 2018   1.017   1.901   2.615
  646SOL    HW1 2019   0.945   1.906   2.546
  646SOL    HW2 2020   0.993   1.832   2.684
  647SOL     OW 2021   1.429   3.035   2.729
  647SOL    HW1 2022   1.374   2.951   2.722
  647SOL    HW2 2023   1.455   3.064   2.637
  648SOL     OW 2024   1.466   2.452   2.854
  648SOL    HW1 2025   1.436   2.357   2.861
  648SOL    HW2 2026   1.539   2.468   2.920
  649SOL     OW 2027   1.857   2.695   2.239
  649SOL    HW1 2028   1.899   2.631   2.303
  649SOL    HW2 2029   1.819   2.644   2.161
  650SOL     OW 2030   0.488   3.247   2.036
  650SOL    HW1 2031   0.401   3.232   2.083
  650SOL    HW2 2032   0.471   3.273   1.941
  651SOL     OW 2033   1.664   3.142   2.519
  651SOL    HW1 2034   1.763   3.150   2.533
  651SOL    HW2 2035   1.619   3.226   2.550
  652SOL     OW 2036   1.390   2.437   1.940
  652SOL    HW1 2037   1.336   2.416   2.021
  652SOL    HW2 2038   1.481   2.396   1.949
  653SOL     OW 2039   0.527   2.118   2.190
  653SOL    HW1 2040   0.554   2.059   2.115
  653SOL    HW2 2041   0.527   2.213   2.159
  654SOL     OW 2042   1.754   3.085   3.450
  654SOL    HW1 2043   1.845   3.046   3.437
  654SOL    HW2 2044   1.762   3.181   3.474
  655SOL     OW 2045   1.064   3.209   3.202
  655SOL    HW1 2046   0.984   3.186   3.257
  655SOL    HW2 2047   1.147   3.183   3.251
  656SOL     OW 2048   1.592   3.491   3.487
  656SOL    HW1 2049   1.619   3.525   3.397
  656SOL    HW2 2050   1.671   3.453   3.533
  657SOL     OW 2051   1.111   3.057   2.962
  657SOL    HW1 2052   1.071   3.101   3.043
  657SOL    HW2 2053   1.070   3.094   2.879
  658SOL     OW 2054   1.638   2.961   2.941
  658SOL    HW1 2055   1.643   3.042   3.000
  658SOL    HW2 2056   1.552   2.963   2.890
  659SOL     OW 2057   0.915   1.951   3.264
  659SOL    HW1 2058   0.940   1.931   3.169
  659SOL    HW2 2059   0.987   2.007   3.306
  660SOL     OW 2060   0.705   2.912   2.230
  660SOL    HW1 2061   0.691   2.919   2.329
  660SOL    HW2 2062   0.789   2.861   2.212
  661SOL     OW 2063   0.410   2.675   3.113
  661SOL    HW1 2064   0.496   2.687   3.163
  661SOL    HW2 2065   0.368   2.588   3.140
  662SOL     OW 2066   1.274   2.248   3.124
  662SOL    HW1 2067   1.295   2.322   3.188
  662SOL    HW2 2068   1.185   2.265   3.081
  663SOL     OW 2069   0.064   3.426   3.193
  663SOL    HW1 2070   0.018   3.508   3.159
  663SOL    HW2 2071   0.162   3.445   3.202
  664SOL     OW 2072   0.367   2.962   2.363
  664SOL    HW1 2073   0.360   3.045   2.307
  664SOL    HW2 2074   0.371   2.882   2.303
  665SOL     OW 2075   0.566   2.399   2.727
  665SOL    HW1 2076   0.578   2.465   2.653
  665SOL    HW2 2077   0.612   2.433   2.810
  666SOL     OW 2078   1.252   3.210   2.250
  666SOL    HW1 2079   1.302   3.287   2.290
  666SOL    HW2 2080   1.157   3.212   2.282
  667SOL     OW 2081   1.272   3.307   3.004
  667SOL    HW1 2082   1.319   3.320   3.091
  667SOL    HW2 2083   1.206   3.233   3.013
  668SOL     OW 2084   1.582   2.501   2.334
  668SOL    HW1 2085   1.551   2.562   2.407
  668SOL    HW2 2086   1.632   2.553   2.265
  669SOL     OW 2087   0.354   3.372   3.191
  669SOL    HW1 2088   0.333   3.328   3.104
  669SOL    HW2 2089   0.451   3.398   3.194
  670SOL     OW 2090   0.402   2.613   3.460
  670SOL    HW1 2091   0.470   2.668   3.413
  670SOL    HW2 2092   0.442   2.525   3.487
  671SOL     OW 2093   1.587   2.641   3.532
  671SOL    HW1 2094   1.495   2.679   3.527
  671SOL    HW2 2095   1.647   2.688   3.467
  672SOL     OW 2096   0.573   2.732   2.891
  672SOL    HW1 2097   0.617   2.821   2.882
  672SOL    HW2 2098   0.510   2.732   2.968
  673SOL     OW 2099   1.360   2.724   2.907
  673SOL    HW1 2100   1.285   2.724   2.841
  673SOL    HW2 2101   1.397   2.632   2.916
  674SOL     OW 2102   1.209   2.387   2.137
  674SOL    HW1 2103   1.222   2.303   2.191
  674SOL    HW2 2104   1.180   2.461   2.197
  675SOL     OW 2105   0.307   2.075   3.093
  675SOL    HW1 2106   0.284   2.112   3.183
  675SOL    HW2 2107   0.277   1.980   3.087
  676SOL     OW 2108   0.037   3.172   3.144
  676SOL    HW1 2109   0.090   3.123   3.212
  676SOL    HW2 2110   0.059   3.270   3.149
  677SOL     OW 2111   0.732   2.496   2.926
  677SOL    HW1 2112   0.791   2.470   2.850
  677SOL    HW2 2113   0.704   2.592   2.915
  678SOL     OW 2114   0.307   1.925   2.480
  678SOL    HW1 2115   0.296   2.019   2.513
  678SOL    HW2 2116   0.302   1.862   2.557
  679SOL     OW 2117   1.622   2.229   2.236
  679SOL    HW1 2118   1.624   2.153   2.300
  679SOL    HW2 2119   1.574   2.306   2.276
  680SOL     OW 2120   1.023   2.628   2.828
  680SOL    HW1 2121   1.038   2.649   2.924
  680SOL    HW2 2122   0.993   2.533   2.819
  681SOL     OW 2123   1.859   3.380   3.467
  681SOL    HW1 2124   1.873   3.407   3.372
  681SOL    HW2 2125   1.942   3.402   3.520
  682SOL     OW 2126   1.540   2.136   1.987
  682SOL    HW1 2127   1.479   2.061   2.010
  682SOL    HW2 2128   1.562   2.188   2.070
  683SOL     OW 2129   1.303   2.700   1.904
  683SOL    HW1 2130   1.337   2.607   1.919
  683SOL    HW2 2131   1.321   2.727   1.809
  684SOL     OW 2132   1.068   3.195   2.711
  684SOL    HW1 2133   1.075   3.111   2.656
  684SOL    HW2 2134   1.130   3.264   2.675
  685SOL     OW 2135   0.319   2.672   2.811
  685SOL    HW1 2136   0.412   2.708   2.816
  685SOL    HW2 2137   0.313   2.587   2.863
  686SOL     OW 2138   0.339   2.371   2.868
  686SOL    HW1 2139   0.287   2.288   2.851
  686SOL    HW2 2140   0.416   2.376   2.804
  687SOL     OW 2141   1.160   2.069   3.339
  687SOL    HW1 2142   1.160   2.133   3.416
  687SOL    HW2 2143   1.188   2.117   3.256
  688SOL     OW 2144   0.008   3.188   2.062
  688SOL    HW1 2145  -0.085   3.209   2.031
  688SOL    HW2 2146   0.018   3.089   2.075
  689SOL     OW 2147   0.088   3.663   2.789
  689SOL    HW1 2148   0.046   3.577   2.762
  689SOL    HW2 2149   0.182   3.666   2.755
  690SOL     OW 2150   0.504   3.430   2.772
  690SOL    HW1 2151   0.570   3.504   2.781
  690SOL    HW2 2152   0.548   3.351   2.730
  691SOL     OW 2153   1.002   2.658   3.100
  691SOL    HW1 2154   1.043   2.626   3.186
  691SOL    HW2 2155   0.906   2.631   3.097
  692SOL     OW 2156   0.040   2.406   2.976
  692SOL    HW1 2157   0.125   2.373   2.935
  692SOL    HW2 2158   0.053   2.421   3.074
  693SOL     OW 2159   0.815   2.434   2.187
  693SOL    HW1 2160   0.822   2.345   2.141
  693SOL    HW2 2161   0.721   2.468   2.179
  694SOL     OW 2162   1.657   2.466   3.068
  694SOL    HW1 2163   1.619   2.397   3.130
  694SOL    HW2 2164   1.739   2.430   3.024
  695SOL     OW 2165   0.252   3.426   3.606
  695SOL    HW1 2166   0.222   3.483   3.682
  695SOL    HW2 2167   0.245   3.329   3.632
  696SOL     OW 2168   0.671   2.326   3.131
  696SOL    HW1 2169   0.637   2.237   3.101
  696SOL    HW2 2170   0.697   2.380   3.051
  697SOL     OW 2171   0.473   2.362   2.053
  697SOL    HW1 2172   0.534   2.442   2.057
  697SOL    HW2 2173   0.378   2.393   2.060
  698SOL     OW 2174   0.159   2.999   3.328
  698SOL    HW1 2175   0.181   2.938   3.404
  698SOL    HW2 2176   0.169   2.950   3.242
  699SOL     OW 2177   1.347   2.921   3.096
  699SOL    HW1 2178   1.371   2.858   3.022
  699SOL    HW2 2179   1.257   2.961   3.078
  700SOL     OW 2180   1.302   2.717   2.171
  700SOL    HW1 2181   1.216   2.686   2.213
  700SOL    HW2 2182   1.298   2.703   2.072
  701SOL     OW 2183   1.252   3.593   2.990
  701SOL    HW1 2184   1.336   3.598   2.936
  701SOL    HW2 2185   1.229   3.497   3.008
  702SOL     OW 2186   0.083   3.120   2.884
  702SOL    HW1 2187   0.078   3.119   2.984
  702SOL    HW2 2188   0.000   3.079   2.846
  703SOL     OW 2189   1.388   3.435   2.339
  703SOL    HW1 2190   1.455   3.447   2.265
  703SOL    HW2 2191   1.348   3.524   2.362
  704SOL     OW 2192   1.280   2.789   2.534
  704SOL    HW1 2193   1.340   2.708   2.536
  704SOL    HW2 2194   1.320   2.858   2.474
  705SOL     OW 2195   0.830   3.135   3.284
  705SOL    HW1 2196   0.825   3.168   3.379
  705SOL    HW2 2197   0.744   3.154   3.238
  706SOL     OW 2198   0.672   3.478   2.016
  706SOL    HW1 2199   0.681   3.488   1.917
  706SOL    HW2 2200   0.632   3.389   2.037
  707SOL     OW 2201   1.841   2.037   2.825
  707SOL    HW1 2202   1.880   1.952   2.789
  707SOL    HW2 2203   1.743   2.039   2.806
  708SOL     OW 2204   0.263   2.188   2.582
  708SOL    HW1 2205   0.184   2.239   2.548
  708SOL    HW2 2206   0.254   2.173   2.680
  709SOL     OW 2207   1.194   3.474   1.893
  709SOL    HW1 2208   1.200   3.381   1.930
  709SOL    HW2 2209   1.135   3.474   1.813
  710SOL     OW 2210   0.822   2.864   3.234
  710SOL    HW1 2211   0.862   2.863   3.142
  710SOL    HW2 2212   0.832   2.956   3.274
  711SOL     OW 2213   0.916   2.772   2.153
  711SOL    HW1 2214   0.979   2.810   2.085
  711SOL    HW2 2215   0.956   2.689   2.192
  712SOL     OW 2216   0.372   3.150   3.352
  712SOL    HW1 2217   0.359   3.243   3.318
  712SOL    HW2 2218   0.288   3.098   3.339
  713SOL     OW 2219   1.614   3.154   3.151
  713SOL    HW1 2220   1.674   3.157   3.231
  713SOL    HW2 2221   1.539   3.218   3.164
  714SOL     OW 2222   1.039   2.960   2.558
  714SOL    HW1 2223   0.969   2.913   2.612
  714SOL    HW2 2224   1.098   2.892   2.515
  715SOL     OW 2225   1.014   2.098   2.833
  715SOL    HW1 2226   1.006   2.062   2.740
  715SOL    HW2 2227   1.012   2.022   2.898
  716SOL     OW 2228   0.590   3.349   2.353
  716SOL    HW1 2229   0.632   3.291   2.283
  716SOL    HW2 2230   0.546   3.428   2.309
  717SOL     OW 2231   1.709   2.247   3.243
  717SOL    HW1 2232   1.782   2.316   3.247
  717SOL    HW2 2233   1.737   2.172   3.184
  718SOL     OW 2234   0.255   3.210   2.152
  718SOL    HW1 2235   0.159   3.211   2.125
  718SOL    HW2 2236   0.267   3.263   2.236
  719SOL     OW 2237   0.105   2.875   3.588
  719SOL    HW1 2238   0.028   2.842   3.642
  719SOL    HW2 2239   0.190   2.845   3.630
  720SOL     OW 2240   0.672   2.065   3.351
  720SOL    HW1 2241   0.762   2.049   3.311
  720SOL    HW2 2242   0.680   2.070   3.450
  721SOL     OW 2243   0.075   2.207   1.895
  721SOL    HW1 2244  -0.017   2.179   1.866
  721SOL    HW2 2245   0.106   2.284   1.839
  722SOL     OW 2246   1.440   2.718   3.260
  722SOL    HW1 2247   1.383   2.770   3.197
  722SOL    HW2 2248   1.536   2.730   3.236
  723SOL     OW 2249   0.072   2.028   2.180
  723SOL    HW1 2250   0.055   2.111   2.126
  723SOL    HW2 2251   0.162   1.991   2.158
  724SOL     OW 2252   1.183   3.197   1.981
  724SOL    HW1 2253   1.084   3.186   1.983
  724SOL    HW2 2254   1.217   3.212   2.074
  725SOL     OW 2255   0.613   2.704   3.293
  725SOL    HW1 2256   0.669   2.785   3.276
  725SOL    HW2 2257   0.672   2.624   3.296
  726SOL     OW 2258   0.716   2.427   3.570
  726SOL    HW1 2259   0.735   2.492   3.644
  726SOL    HW2 2260   0.776   2.347   3.579
  727SOL     OW 2261   0.390   3.603   3.422
  727SOL    HW1 2262   0.299   3.644   3.420
  727SOL    HW2 2263   0.383   3.509   3.454
  728SOL     OW 2264   1.674   2.745   3.116
  728SOL    HW1 2265   1.647   2.656   3.079
  728SOL    HW2 2266   1.675   2.813   3.043
  729SOL     OW 2267   1.225   2.187   2.311
  729SOL    HW1 2268   1.290   2.113   2.300
  729SOL    HW2 2269   1.245   2.237   2.395
  730SOL     OW 2270   0.594   2.607   2.514
  730SOL    HW1 2271   0.644   2.692   2.495
  730SOL    HW2 2272   0.506   2.609   2.466
  731SOL     OW 2273   1.730   2.796   3.379
  731SOL    HW1 2274   1.768   2.887   3.394
  731SOL    HW2 2275   1.722   2.779   3.280
  732SOL     OW 2276   0.859   3.236   1.878
  732SOL    HW1 2277   0.813   3.251   1.966
  732SOL    HW2 2278   0.903   3.321   1.848
  733SOL     OW 2279   0.859   2.818   2.723
  733SOL    HW1 2280   0.913   2.749   2.771
  733SOL    HW2 2281   0.827   2.887   2.789
  734SOL     OW 2282   1.083   2.846   1.949
  734SOL    HW1 2283   1.060   2.899   1.867
  734SOL    HW2 2284   1.164   2.790   1.930
  735SOL     OW 2285   1.861   3.431   2.713
  735SOL    HW1 2286   1.790   3.419   2.643
  735SOL    HW2 2287   1.862   3.352   2.773
  736SOL     OW 2288   0.079   3.102   2.515
  736SOL    HW1 2289   0.078   3.055   2.603
  736SOL    HW2 2290   0.161   3.074   2.464
  737SOL     OW 2291   0.672   3.253   3.486
  737SOL    HW1 2292   0.594   3.203   3.524
  737SOL    HW2 2293   0.669   3.348   3.517
  738SOL     OW 2294   1.824   2.054   3.089
  738SOL    HW1 2295   1.820   1.964   3.133
  738SOL    HW2 2296   1.827   2.043   2.990
  739SOL     OW 2297   0.428   2.286   2.382
  739SOL    HW1 2298   0.458   2.214   2.320
  739SOL    HW2 2299   0.389   2.246   2.465
  740SOL     OW 2300   1.705   3.349   2.966
  740SOL    HW1 2301   1.612   3.324   2.939
  740SOL    HW2 2302   1.731   3.299   3.048
  741SOL     OW 2303   0.317   2.409   3.142
  741SOL    HW1 2304   0.355   2.350   3.214
  741SOL    HW2 2305   0.357   2.383   3.054
  742SOL     OW 2306   0.812   3.448   2.549
  742SOL    HW1 2307   0.844   3.458   2.455
  742SOL    HW2 2308   0.733   3.386   2.551
  743SOL     OW 2309   1.424   2.076   2.974
  743SOL    HW1 2310   1.476   2.011   3.029
  743SOL    HW2 2311   1.375   2.139   3.035
  744SOL     OW 2312   1.001   1.896   3.016
  744SOL    HW1 2313   0.938   1.824   2.985
  744SOL    HW2 2314   1.094   1.860   3.016
  745SOL     OW 2315   0.770   3.192   2.163
  745SOL    HW1 2316   0.724   3.105   2.180
  745SOL    HW2 2317   0.861   3.189   2.204
  746SOL     OW 2318   0.618   3.429   3.146
  746SOL    HW1 2319   0.613   3.511   3.203
  746SOL    HW2 2320   0.707   3.426   3.101
  747SOL     OW 2321   1.300   2.315   2.553
  747SOL    HW1 2322   1.241   2.395   2.557
  747SOL    HW2 2323   1.315   2.280   2.646
  748SOL     OW 2324   1.593   2.083   2.744
  748SOL    HW1 2325   1.509   2.082   2.798
  748SOL    HW2 2326   1.595   2.166   2.688
  749SOL     OW 2327   0.039   2.939   2.162
  749SOL    HW1 2328   0.138   2.928   2.153
  749SOL    HW2 2329  -0.001   2.853   2.194
  750SOL     OW 2330   2.092   0.628   0.113
  750SOL    HW1 2331   1.999   0.626   0.150
  750SOL    HW2 2332   2.093   0.589   0.021
  751SOL     OW 2333   2.087   0.275   0.996
  751SOL    HW1 2334   2.122   0.258   1.088
  751SOL    HW2 2335   1.999   0.230   0.984
  752SOL     OW 2336   1.881   0.368   0.647
  752SOL    HW1 2337   1.799   0.411   0.686
  752SOL    HW2 2338   1.853   0.295   0.584
  753SOL     OW 2339   2.431   1.275   1.165
  753SOL    HW1 2340   2.338   1.268   1.128
  753SOL    HW2 2341   2.442   1.364   1.209
  754SOL     OW 2342   3.417   1.511   0.703
  754SOL    HW1 2343   3.360   1.495   0.784
  754SOL    HW2 2344   3.358   1.521   0.623
  755SOL     OW 2345   2.997   0.703   0.717
  755SOL    HW1 2346   3.054   0.781   0.692
  755SOL    HW2 2347   2.937   0.729   0.793
  756SOL     OW 2348   2.630   1.144   1.023
  756SOL    HW1 2349   2.552   1.161   1.083
  756SOL    HW2 2350   2.664   1.231   0.987
  757SOL     OW 2351   2.712   0.798   1.823
  757SOL    HW1 2352   2.708   0.874   1.888
  757SOL    HW2 2353   2.734   0.834   1.732
  758SOL     OW 2354   2.547   1.012   0.665
  758SOL    HW1 2355   2.616   0.996   0.735
  758SOL    HW2 2356   2.474   1.069   0.703
  759SOL     OW 2357   2.548   1.161   1.803
  759SOL    HW1 2358   2.608   1.240   1.817
  759SOL    HW2 2359   2.462   1.192   1.762
  760SOL     OW 2360   2.197   1.435   1.061
  760SOL    HW1 2361   2.119   1.404   1.008
  760SOL    HW2 2362   2.255   1.493   1.004
  761SOL     OW 2363   3.322   1.505   1.339
  761SOL    HW1 2364   3.346   1.599   1.365
  761SOL    HW2 2365   3.306   1.451   1.421
  762SOL     OW 2366   2.300   0.392   1.499
  762SOL    HW1 2367   2.382   0.336   1.508
  762SOL    HW2 2368   2.219   0.334   1.503
  763SOL     OW 2369   2.093   1.713   0.483
  763SOL    HW1 2370   2.127   1.790   0.537
  763SOL    HW2 2371   2.137   1.713   0.393
  764SOL     OW 2372   2.989   1.341   1.690
  764SOL    HW1 2373   3.036   1.341   1.778
  764SOL    HW2 2374   2.941   1.254   1.679
  765SOL     OW 2375   2.092   1.434   0.538
  765SOL    HW1 2376   2.066   1.530   0.538
  765SOL    HW2 2377   2.021   1.380   0.583
  766SOL     OW 2378   2.102   1.091   0.886
  766SOL    HW1 2379   2.116   1.007   0.938
  766SOL    HW2 2380   2.047   1.155   0.941
  767SOL     OW 2381   2.482   1.786   1.439
  767SOL    HW1 2382   2.390   1.769   1.474
  767SOL    HW2 2383   2.510   1.878   1.465
  768SOL     OW 2384   2.468   0.964   0.123
  768SOL    HW1 2385   2.475   1.048   0.069
  768SOL    HW2 2386   2.514   0.977   0.211
  769SOL     OW 2387   3.456   0.114   1.480
  769SOL    HW1 2388   3.438   0.181   1.408
  769SOL    HW2 2389   3.453   0.160   1.569
  770SOL     OW 2390   1.984   0.643   0.563
  770SOL    HW1 2391   1.939   0.555   0.580
  770SOL    HW2 2392   1.983   0.697   0.647
  771SOL     OW 2393   1.889   1.596   0.117
  771SOL    HW1 2394   1.870   1.500   0.138
  771SOL    HW2 2395   1.856   1.654   0.192
  772SOL     OW 2396   3.551   0.922   0.612
  772SOL    HW1 2397   3.646   0.893   0.620
  772SOL    HW2 2398   3.543   0.987   0.537
  773SOL     OW 2399   1.975   0.737   1.597
  773SOL    HW1 2400   2.063   0.724   1.642
  773SOL    HW2 2401   1.962   0.834   1.575
  774SOL     OW 2402   2.475   1.365   0.726
  774SOL    HW1 2403   2.426   1.278   0.735
  774SOL    HW2 2404   2.452   1.408   0.639
  775SOL     OW 2405   3.155   1.228   1.423
  775SOL    HW1 2406   3.192   1.155   1.365
  775SOL    HW2 2407   3.207   1.233   1.508
  776SOL     OW 2408   2.671   0.004   0.502
  776SOL    HW1 2409   2.711   0.095   0.493
  776SOL    HW2 2410   2.571   0.012   0.508
  777SOL     OW 2411   2.059   0.976   1.264
  777SOL    HW1 2412   2.148   0.931   1.250
  777SOL    HW2 2413   1.986   0.911   1.245
  778SOL     OW 2414   3.387   0.999   0.190
  778SOL    HW1 2415   3.324   0.923   0.203
  778SOL    HW2 2416   3.435   1.017   0.276
  779SOL     OW 2417   3.049   1.792   1.616
  779SOL    HW1 2418   3.073   1.852   1.540
  779SOL    HW2 2419   3.056   1.697   1.586
  780SOL     OW 2420   2.179   0.251   1.801
  780SOL    HW1 2421   2.250   0.322   1.807
  780SOL    HW2 2422   2.091   0.290   1.829
  781SOL     OW 2423   3.328   1.417   0.953
  781SOL    HW1 2424   3.269   1.423   1.033
  781SOL    HW2 2425   3.313   1.329   0.907
  782SOL     OW 2426   3.529   1.714   0.572
  782SOL    HW1 2427   3.488   1.691   0.484
  782SOL    HW2 2428   3.511   1.640   0.637
  783SOL     OW 2429   2.460   0.729   0.270
  783SOL    HW1 2430   2.484   0.798   0.202
  783SOL    HW2 2431   2.382   0.762   0.324
  784SOL     OW 2432   3.143   0.345   0.944
  784SOL    HW1 2433   3.057   0.295   0.931
  784SOL    HW2 2434   3.205   0.291   1.000
  785SOL     OW 2435   3.438   1.662   0.307
  785SOL    HW1 2436   3.527   1.708   0.310
  785SOL    HW2 2437   3.417   1.638   0.212
  786SOL     OW 2438   2.669   0.605   1.465
  786SOL    HW1 2439   2.622   0.602   1.554
  786SOL    HW2 2440   2.618   0.550   1.399
  787SOL     OW 2441   3.256   0.469   1.674
  787SOL    HW1 2442   3.236   0.512   1.762
  787SOL    HW2 2443   3.334   0.407   1.683
  788SOL     OW 2444   2.835   0.890   1.572
  788SOL    HW1 2445   2.881   0.806   1.543
  788SOL    HW2 2446   2.779   0.924   1.497
  789SOL     OW 2447   2.853   0.410   1.242
  789SOL    HW1 2448   2.776   0.444   1.296
  789SOL    HW2 2449   2.819   0.359   1.163
  790SOL     OW 2450   2.903   0.701   0.429
  790SOL    HW1 2451   2.929   0.697   0.525
  790SOL    HW2 2452   2.818   0.650   0.415
  791SOL     OW 2453   1.938   0.811   0.789
  791SOL    HW1 2454   2.037   0.799   0.798
  791SOL    HW2 2455   1.914   0.906   0.810
  792SOL     OW 2456   2.727   0.348   0.195
  792SOL    HW1 2457   2.786   0.411   0.146
  792SOL    HW2 2458   2.746   0.254   0.166
  793SOL     OW 2459   3.581   0.585   1.831
  793SOL    HW1 2460   3.555   0.674   1.795
  793SOL    HW2 2461   3.579   0.517   1.758
  794SOL     OW 2462   3.224   1.144   0.545
  794SOL    HW1 2463   3.307   1.115   0.497
  794SOL    HW2 2464   3.175   1.211   0.489
  795SOL     OW 2465   2.412   0.196   0.885
  795SOL    HW1 2466   2.407   0.191   0.985
  795SOL    HW2 2467   2.414   0.292   0.856
  796SOL     OW 2468   2.870   1.456   0.477
  796SOL    HW1 2469   2.824   1.528   0.425
  796SOL    HW2 2470   2.866   1.476   0.575
  797SOL     OW 2471   2.213   1.801   0.853
  797SOL    HW1 2472   2.263   1.715   0.859
  797SOL    HW2 2473   2.278   1.878   0.850
  798SOL     OW 2474   3.089   1.550   1.506
  798SOL    HW1 2475   3.095   1.473   1.570
  798SOL    HW2 2476   3.037   1.524   1.426
  799SOL     OW 2477   2.183   0.943   0.242
  799SOL    HW1 2478   2.265   0.982   0.200
  799SOL    HW2 2479   2.156   0.861   0.193
  800SOL     OW 2480   3.320   0.735   0.728
  800SOL    HW1 2481   3.315   0.670   0.803
  800SOL    HW2 2482   3.400   0.794   0.741
  801SOL     OW 2483   2.323   1.266   1.727
  801SOL    HW1 2484   2.273   1.267   1.641
  801SOL    HW2 2485   2.260   1.248   1.803
  802SOL     OW 2486   2.973   1.776   0.237
  802SOL    HW1 2487   2.913   1.714   0.287
  802SOL    HW2 2488   3.004   1.732   0.152
  803SOL     OW 2489   2.064   0.285   1.498
  803SOL    HW1 2490   1.984   0.345   1.485
  803SOL    HW2 2491   2.054   0.236   1.584
  804SOL     OW 2492   2.326   1.743   0.323
  804SOL    HW1 2493   2.359   1.782   0.409
  804SOL    HW2 2494   2.402   1.736   0.258
  805SOL     OW 2495   3.262   0.107   0.426
  805SOL    HW1 2496   3.238   0.070   0.336
  805SOL    HW2 2497   3.361   0.123   0.430
  806SOL     OW 2498   2.111   1.785   1.241
  806SOL    HW1 2499   2.168   1.720   1.291
  806SOL    HW2 2500   2.095   1.752   1.148
  807SOL     OW 2501   2.802   1.698   0.904
  807SOL    HW1 2502   2.882   1.641   0.925
  807SOL    HW2 2503   2.753   1.658   0.827
  808SOL     OW 2504   2.244   0.700   0.480
  808SOL    HW1 2505   2.289   0.610   0.477
  808SOL    HW2 2506   2.150   0.689   0.513
  809SOL     OW 2507   3.409   0.222   1.729
  809SOL    HW1 2508   3.404   0.259   1.821
  809SOL    HW2 2509   3.337   0.153   1.717
  810SOL     OW 2510   2.476   0.122   0.117
  810SOL    HW1 2511   2.574   0.100   0.124
  810SOL    HW2 2512   2.445   0.105   0.024
  811SOL     OW 2513   2.643   0.264   1.749
  811SOL    HW1 2514   2.710   0.203   1.792
  811SOL    HW2 2515   2.570   0.283   1.814
  812SOL     OW 2516   2.750   1.514   1.195
  812SOL    HW1 2517   2.727   1.489   1.101
  812SOL    HW2 2518   2.811   1.445   1.234
  813SOL     OW 2519   3.213   0.590   1.433
  813SOL    HW1 2520   3.241   0.547   1.518
  813SOL    HW2 2521   3.238   0.686   1.434
  814SOL     OW 2522   2.665   1.402   0.924
  814SOL    HW1 2523   2.755   1.416   0.882
  814SOL    HW2 2524   2.594   1.404   0.853
  815SOL     OW 2525   2.784   0.503   0.899
  815SOL    HW1 2526   2.759   0.494   0.803
  815SOL    HW2 2527   2.832   0.421   0.930
  816SOL     OW 2528   2.401   0.064   0.512
  816SOL    HW1 2529   2.320   0.065   0.570
  816SOL    HW2 2530   2.404   0.147   0.457
  817SOL     OW 2531   3.296   1.188   0.041
  817SOL    HW1 2532   3.328   1.112   0.098
  817SOL    HW2 2533   3.204   1.215   0.071
  818SOL     OW 2534   2.159   0.035   0.171
  818SOL    HW1 2535   2.208   0.119   0.150
  818SOL    HW2 2536   2.221  -0.030   0.216
  819SOL     OW 2537   2.797   0.236   0.480
  819SOL    HW1 2538   2.749   0.277   0.402
  819SOL    HW2 2539   2.896   0.234   0.461
  820SOL     OW 2540   2.938   0.683   1.464
  820SOL    HW1 2541   2.858   0.622   1.467
  820SOL    HW2 2542   3.019   0.630   1.440
  821SOL     OW 2543   3.089   1.570   0.793
  821SOL    HW1 2544   3.110   1.644   0.728
  821SOL    HW2 2545   3.157   1.570   0.866
  822SOL     OW 2546   2.321   1.152   0.741
  822SOL    HW1 2547   2.250   1.125   0.806
  822SOL    HW2 2548   2.295   1.124   0.648
  823SOL     OW 2549   3.133   1.797   0.591
  823SOL    HW1 2550   3.177   1.861   0.527
  823SOL    HW2 2551   3.083   1.849   0.661
  824SOL     OW 2552   2.894   0.549   0.016
  824SOL    HW1 2553   2.853   0.631  -0.023
  824SOL    HW2 2554   2.958   0.575   0.089
  825SOL     OW 2555   1.940   0.556   1.386
  825SOL    HW1 2556   2.032   0.555   1.345
  825SOL    HW2 2557   1.934   0.630   1.453
  826SOL     OW 2558   2.423   0.222   1.147
  826SOL    HW1 2559   2.461   0.138   1.184
  826SOL    HW2 2560   2.335   0.241   1.191
  827SOL     OW 2561   2.728   0.454   0.642
  827SOL    HW1 2562   2.696   0.526   0.580
  827SOL    HW2 2563   2.752   0.373   0.589
  828SOL     OW 2564   2.879   0.039   0.753
  828SOL    HW1 2565   2.807   0.044   0.684
  828SOL    HW2 2566   2.855  -0.030   0.822
  829SOL     OW 2567   3.291   1.173   0.867
  829SOL    HW1 2568   3.236   1.089   0.860
  829SOL    HW2 2569   3.317   1.202   0.775
  830SOL     OW 2570   3.328   0.590   0.992
  830SOL    HW1 2571   3.298   0.495   0.999
  830SOL    HW2 2572   3.401   0.606   1.058
  831SOL     OW 2573   3.719   0.833   0.377
  831SOL    HW1 2574   3.761   0.769   0.441
  831SOL    HW2 2575   3.681   0.782   0.299
  832SOL     OW 2576   2.350   1.385   0.174
  832SOL    HW1 2577   2.263   1.370   0.221
  832SOL    HW2 2578   2.333   1.411   0.079
  833SOL     OW 2579   3.252   0.575   0.078
  833SOL    HW1 2580   3.198   0.554   0.159
  833SOL    HW2 2581   3.343   0.534   0.087
  834SOL     OW 2582   2.389   0.256   0.328
  834SOL    HW1 2583   2.416   0.197   0.253
  834SOL    HW2 2584   2.389   0.351   0.297
  835SOL     OW 2585   2.926   1.347   1.340
  835SOL    HW1 2586   2.846   1.324   1.395
  835SOL    HW2 2587   3.009   1.321   1.389
  836SOL     OW 2588   3.454   1.629   1.625
  836SOL    HW1 2589   3.481   1.663   1.535
  836SOL    HW2 2590   3.533   1.591   1.671
  837SOL     OW 2591   2.973   1.195   1.100
  837SOL    HW1 2592   2.933   1.239   1.181
  837SOL    HW2 2593   2.932   1.232   1.017
  838SOL     OW 2594   3.500   1.099   1.079
  838SOL    HW1 2595   3.505   1.180   1.138
  838SOL    HW2 2596   3.414   1.101   1.028
  839SOL     OW 2597   2.777   0.089   1.402
  839SOL    HW1 2598   2.802   0.069   1.307
  839SOL    HW2 2599   2.849   0.145   1.444
  840SOL     OW 2600   2.842   1.116   1.719
  840SOL    HW1 2601   2.743   1.122   1.729
  840SOL    HW2 2602   2.865   1.036   1.663
  841SOL     OW 2603   2.567   1.050   0.368
  841SOL    HW1 2604   2.553   1.057   0.467
  841SOL    HW2 2605   2.651   0.999   0.350
  842SOL     OW 2606   2.272   0.813   1.251
  842SOL    HW1 2607   2.358   0.825   1.301
  842SOL    HW2 2608   2.230   0.726   1.278
  843SOL     OW 2609   3.136   0.386   1.262
  843SOL    HW1 2610   3.157   0.460   1.326
  843SOL    HW2 2611   3.047   0.403   1.219
  844SOL     OW 2612   2.229   1.100   0.501
  844SOL    HW1 2613   2.222   1.183   0.445
  844SOL    HW2 2614   2.233   1.020   0.441
  845SOL     OW 2615   2.428   0.537   0.865
  845SOL    HW1 2616   2.440   0.603   0.791
  845SOL    HW2 2617   2.474   0.571   0.948
  846SOL     OW 2618   3.114   1.348   0.388
  846SOL    HW1 2619   3.164   1.425   0.428
  846SOL    HW2 2620   3.019   1.350   0.420
  847SOL     OW 2621   3.134   1.445   1.142
  847SOL    HW1 2622   3.181   1.458   1.229
  847SOL    HW2 2623   3.068   1.371   1.151
  848SOL     OW 2624   3.444   0.639   0.472
  848SOL    HW1 2625   3.413   0.700   0.545
  848SOL    HW2 2626   3.494   0.691   0.403
  849SOL     OW 2627   2.216   1.510   1.329
  849SOL    HW1 2628   2.195   1.466   1.242
  849SOL    HW2 2629   2.313   1.536   1.332
  850SOL     OW 2630   2.264   0.751   1.598
  850SOL    HW1 2631   2.332   0.806   1.551
  850SOL    HW2 2632   2.304   0.663   1.625
  851SOL     OW 2633   3.449   0.779   1.670
  851SOL    HW1 2634   3.357   0.817   1.665
  851SOL    HW2 2635   3.509   0.826   1.605
  852SOL     OW 2636   2.875   0.105   1.770
  852SOL    HW1 2637   2.881   0.190   1.718
  852SOL    HW2 2638   2.907   0.029   1.713
  853SOL     OW 2639   2.366   0.050   1.740
  853SOL    HW1 2640   2.324  -0.007   1.670
  853SOL    HW2 2641   2.300   0.119   1.772
  854SOL     OW 2642   2.435   0.870   1.029
  854SOL    HW1 2643   2.479   0.959   1.020
  854SOL    HW2 2644   2.372   0.870   1.106
  855SOL     OW 2645   3.222   0.862   1.045
  855SOL    HW1 2646   3.147   0.862   0.979
  855SOL    HW2 2647   3.259   0.770   1.054
  856SOL     OW 2648   3.071   0.525   0.275
  856SOL    HW1 2649   3.084   0.441   0.329
  856SOL    HW2 2650   3.042   0.599   0.335
  857SOL     OW 2651   2.169   0.213   1.231
  857SOL    HW1 2652   2.146   0.250   1.321
  857SOL    HW2 2653   2.139   0.118   1.225
  858SOL     OW 2654   1.899   1.310   1.282
  858SOL    HW1 2655   1.952   1.261   1.350
  858SOL    HW2 2656   1.921   1.408   1.287
  859SOL     OW 2657   2.594   0.634   1.064
  859SOL    HW1 2658   2.653   0.608   0.988
  859SOL    HW2 2659   2.566   0.730   1.053
  860SOL     OW 2660   2.169   0.063   0.618
  860SOL    HW1 2661   2.158   0.157   0.651
  860SOL    HW2 2662   2.164   0.000   0.695
  861SOL     OW 2663   3.484   0.367   0.374
  861SOL    HW1 2664   3.486   0.291   0.438
  861SOL    HW2 2665   3.436   0.444   0.414
  862SOL     OW 2666   2.885   0.766   0.966
  862SOL    HW1 2667   2.900   0.787   1.062
  862SOL    HW2 2668   2.855   0.671   0.957
  863SOL     OW 2669   2.842   1.573   1.700
  863SOL    HW1 2670   2.822   1.617   1.612
  863SOL    HW2 2671   2.881   1.482   1.684
  864SOL     OW 2672   2.212   0.898   1.804
  864SOL    HW1 2673   2.288   0.942   1.852
  864SOL    HW2 2674   2.247   0.851   1.722
  865SOL     OW 2675   3.402   0.274   0.125
  865SOL    HW1 2676   3.341   0.199   0.148
  865SOL    HW2 2677   3.424   0.326   0.208
  866SOL     OW 2678   3.165   0.838   0.042
  866SOL    HW1 2679   3.199   0.745   0.057
  866SOL    HW2 2680   3.183   0.865  -0.053
  867SOL     OW 2681   2.930   1.333   0.849
  867SOL    HW1 2682   2.937   1.249   0.794
  867SOL    HW2 2683   2.992   1.402   0.813
  868SOL     OW 2684   2.181   0.810   0.949
  868SOL    HW1 2685   2.274   0.846   0.954
  868SOL    HW2 2686   2.175   0.725   1.001
  869SOL     OW 2687   2.201   0.509   1.006
  869SOL    HW1 2688   2.149   0.426   0.989
  869SOL    HW2 2689   2.278   0.514   0.942
  870SOL     OW 2690   3.000   0.380   1.678
  870SOL    HW1 2691   2.955   0.443   1.742
  870SOL    HW2 2692   3.093   0.411   1.661
  871SOL     OW 2693   3.022   0.207   1.477
  871SOL    HW1 2694   3.022   0.271   1.554
  871SOL    HW2 2695   3.050   0.255   1.394
  872SOL     OW 2696   1.870   1.326   0.200
  872SOL    HW1 2697   1.777   1.347   0.169
  872SOL    HW2 2698   1.880   1.227   0.213
  873SOL     OW 2699   1.950   1.801   0.927
  873SOL    HW1 2700   1.908   1.715   0.900
  873SOL    HW2 2701   2.044   1.804   0.893
  874SOL     OW 2702   2.366   1.568   0.910
  874SOL    HW1 2703   2.432   1.642   0.919
  874SOL    HW2 2704   2.410   1.489   0.868
  875SOL     OW 2705   2.864   0.796   1.238
  875SOL    HW1 2706   2.905   0.764   1.324
  875SOL    HW2 2707   2.768   0.769   1.235
  876SOL     OW 2708   1.902   0.544   1.114
  876SOL    HW1 2709   1.987   0.511   1.073
  876SOL    HW2 2710   1.915   0.559   1.212
  877SOL     OW 2711   2.051   0.520   1.722
  877SOL    HW1 2712   2.110   0.480   1.652
  877SOL    HW2 2713   1.993   0.591   1.681
  878SOL     OW 2714   3.231   0.950   1.660
  878SOL    HW1 2715   3.270   1.039   1.680
  878SOL    HW2 2716   3.241   0.930   1.563
  879SOL     OW 2717   2.677   0.572   0.325
  879SOL    HW1 2718   2.684   0.483   0.279
  879SOL    HW2 2719   2.583   0.606   0.317
  880SOL     OW 2720   2.533   0.464   1.269
  880SOL    HW1 2721   2.499   0.375   1.239
  880SOL    HW2 2722   2.559   0.518   1.189
  881SOL     OW 2723   2.792   1.678   1.465
  881SOL    HW1 2724   2.768   1.660   1.370
  881SOL    HW2 2725   2.822   1.772   1.475
  882SOL     OW 2726   2.335   0.500   0.191
  882SOL    HW1 2727   2.396   0.580   0.195
  882SOL    HW2 2728   2.240   0.531   0.198
  883SOL     OW 2729   2.021   1.137   1.466
  883SOL    HW1 2730   2.043   1.076   1.542
  883SOL    HW2 2731   2.031   1.088   1.380
  884SOL     OW 2732   3.209   1.059   1.234
  884SOL    HW1 2733   3.233   0.996   1.160
  884SOL    HW2 2734   3.119   1.099   1.216
  885SOL     OW 2735   3.164   0.855   0.309
  885SOL    HW1 2736   3.078   0.824   0.351
  885SOL    HW2 2737   3.160   0.841   0.210
  886SOL     OW 2738   3.621   1.747   1.154
  886SOL    HW1 2739   3.682   1.777   1.081
  886SOL    HW2 2740   3.583   1.658   1.132
  887SOL     OW 2741   3.114   1.731   1.128
  887SOL    HW1 2742   3.198   1.736   1.074
  887SOL    HW2 2743   3.091   1.635   1.146
  888SOL     OW 2744   1.945   1.258   1.022
  888SOL    HW1 2745   1.940   1.257   1.122
  888SOL    HW2 2746   1.862   1.217   0.984
  889SOL     OW 2747   2.550   1.662   1.716
  889SOL    HW1 2748   2.494   1.743   1.725
  889SOL    HW2 2749   2.602   1.666   1.630
  890SOL     OW 2750   2.765   0.086   0.133
  890SOL    HW1 2751   2.816   0.087   0.047
  890SOL    HW2 2752   2.821   0.044   0.204
  891SOL     OW 2753   3.250   1.573   0.477
  891SOL    HW1 2754   3.317   1.585   0.403
  891SOL    HW2 2755   3.210   1.662   0.500
  892SOL     OW 2756   3.142   0.927   0.672
  892SOL    HW1 2757   3.202   0.846   0.674
  892SOL    HW2 2758   3.182   0.996   0.612
  893SOL     OW 2759   2.692   1.273   1.422
  893SOL    HW1 2760   2.687   1.306   1.517
  893SOL    HW2 2761   2.606   1.292   1.376
  894SOL     OW 2762   2.534   1.616   0.154
  894SOL    HW1 2763   2.543   1.626   0.055
  894SOL    HW2 2764   2.494   1.527   0.175
  895SOL     OW 2765   2.125   0.326   0.720
  895SOL    HW1 2766   2.046   0.377   0.686
  895SOL    HW2 2767   2.116   0.311   0.818
  896SOL     OW 2768   3.056   1.612   0.031
  896SOL    HW1 2769   3.062   1.519   0.068
  896SOL    HW2 2770   2.997   1.612  -0.049
  897SOL     OW 2771   2.684   1.002   1.372
  897SOL    HW1 2772   2.724   1.001   1.280
  897SOL    HW2 2773   2.694   1.094   1.412
  898SOL     OW 2774   2.778   0.910   0.291
  898SOL    HW1 2775   2.841   0.948   0.223
  898SOL    HW2 2776   2.818   0.827   0.330
  899SOL     OW 2777   3.366   1.607   0.044
  899SOL    HW1 2778   3.274   1.644   0.051
  899SOL    HW2 2779   3.404   1.627  -0.046
  900SOL     OW 2780   2.234   1.288   1.490
  900SOL    HW1 2781   2.221   1.381   1.456
  900SOL    HW2 2782   2.150   1.236   1.477
  901SOL     OW 2783   2.901   1.098   0.696
  901SOL    HW1 2784   2.831   1.051   0.750
  901SOL    HW2 2785   2.960   1.030   0.653
  902SOL     OW 2786   2.876   0.236   0.971
  902SOL    HW1 2787   2.868   0.200   0.878
  902SOL    HW2 2788   2.874   0.160   1.036
  903SOL     OW 2789   2.452   1.487   0.491
  903SOL    HW1 2790   2.494   1.429   0.421
  903SOL    HW2 2791   2.408   1.566   0.447
  904SOL     OW 2792   2.117   1.348   0.290
  904SOL    HW1 2793   2.021   1.349   0.263
  904SOL    HW2 2794   2.129   1.401   0.374
  905SOL     OW 2795   1.967   1.013   1.726
  905SOL    HW1 2796   1.890   0.980   1.780
  905SOL    HW2 2797   2.052   0.983   1.768
  906SOL     OW 2798   2.534   0.203   1.489
  906SOL    HW1 2799   2.624   0.187   1.449
  906SOL    HW2 2800   2.542   0.208   1.588
  907SOL     OW 2801   1.937   0.345   0.033
  907SOL    HW1 2802   1.845   0.317   0.004
  907SOL    HW2 2803   1.968   0.422  -0.023
  908SOL     OW 2804   3.302   0.856   1.398
  908SOL    HW1 2805   3.245   0.908   1.335
  908SOL    HW2 2806   3.398   0.868   1.374
  909SOL     OW 2807   1.934   0.166   0.318
  909SOL    HW1 2808   1.917   0.249   0.264
  909SOL    HW2 2809   2.024   0.129   0.296
  910SOL     OW 2810   3.045   1.335   0.119
  910SOL    HW1 2811   2.946   1.324   0.121
  910SOL    HW2 2812   3.079   1.350   0.212
  911SOL     OW 2813   2.475   0.842   1.431
  911SOL    HW1 2814   2.531   0.923   1.414
  911SOL    HW2 2815   2.534   0.762   1.434
  912SOL     OW 2816   3.355   1.767   0.959
  912SOL    HW1 2817   3.388   1.831   0.890
  912SOL    HW2 2818   3.421   1.761   1.034
  913SOL     OW 2819   2.578   0.565   1.708
  913SOL    HW1 2820   2.597   0.630   1.782
  913SOL    HW2 2821   2.638   0.485   1.717
  914SOL     OW 2822   3.312   1.220   1.633
  914SOL    HW1 2823   3.303   1.210   1.732
  914SOL    HW2 2824   3.408   1.213   1.607
  915SOL     OW 2825   3.536   0.883   1.254
  915SOL    HW1 2826   3.509   0.794   1.217
  915SOL    HW2 2827   3.537   0.951   1.181
  916SOL     OW 2828   3.087   0.325   0.449
  916SOL    HW1 2829   3.152   0.251   0.438
  916SOL    HW2 2830   3.107   0.375   0.533
  917SOL     OW 2831   2.456   0.745   0.652
  917SOL    HW1 2832   2.506   0.830   0.633
  917SOL    HW2 2833   2.368   0.747   0.604
  918SOL     OW 2834   2.721   1.374   0.016
  918SOL    HW1 2835   2.675   1.389   0.104
  918SOL    HW2 2836   2.765   1.459  -0.014
  919SOL     OW 2837   2.523   1.790   0.953
  919SOL    HW1 2838   2.477   1.878   0.940
  919SOL    HW2 2839   2.622   1.802   0.946
  920SOL     OW 2840   2.721   0.956   0.861
  920SOL    HW1 2841   2.775   0.887   0.909
  920SOL    HW2 2842   2.689   1.025   0.927
  921SOL     OW 2843   2.945   0.984   0.087
  921SOL    HW1 2844   2.922   1.037   0.005
  921SOL    HW2 2845   3.026   0.928   0.068
  922SOL     OW 2846   3.723   1.569   0.851
  922SOL    HW1 2847   3.652   1.557   0.781
  922SOL    HW2 2848   3.724   1.490   0.911
  923SOL     OW 2849   2.083   1.314   1.844
  923SOL    HW1 2850   2.018   1.241   1.823
  923SOL    HW2 2851   2.087   1.328   1.942
  924SOL     OW 2852   1.941   1.240   0.653
  924SOL    HW1 2853   1.940   1.193   0.741
  924SOL    HW2 2854   2.023   1.212   0.602
  925SOL     OW 2855   2.534   1.391   1.624
  925SOL    HW1 2856   2.456   1.341   1.662
  925SOL    HW2 2857   2.531   1.486   1.655
  926SOL     OW 2858   3.686   0.192   1.227
  926SOL    HW1 2859   3.682   0.102   1.271
  926SOL    HW2 2860   3.689   0.181   1.128
  927SOL     OW 2861   2.290   0.424   0.520
  927SOL    HW1 2862   2.320   0.352   0.458
  927SOL    HW2 2863   2.251   0.384   0.603
  928SOL     OW 2864   2.179   0.547   1.280
  928SOL    HW1 2865   2.217   0.488   1.352
  928SOL    HW2 2866   2.219   0.521   1.192
  929SOL     OW 2867   2.674   1.586   0.687
  929SOL    HW1 2868   2.706   1.596   0.593
  929SOL    HW2 2869   2.595   1.524   0.689
  930SOL     OW 2870   3.286   0.214   1.112
  930SOL    HW1 2871   3.338   0.149   1.167
  930SOL    HW2 2872   3.237   0.277   1.173
  931SOL     OW 2873   2.863   0.034   1.154
  931SOL    HW1 2874   2.800  -0.038   1.123
  931SOL    HW2 2875   2.956  -0.002   1.154
  932SOL     OW 2876   2.632   1.330   0.301
  932SOL    HW1 2877   2.586   1.243   0.318
  932SOL    HW2 2878   2.723   1.327   0.342
  933SOL     OW 2879   2.480   1.567   1.284
  933SOL    HW1 2880   2.475   1.649   1.341
  933SOL    HW2 2881   2.569   1.564   1.239
  934SOL     OW 2882   3.214   0.052   0.168
  934SOL    HW1 2883   3.249   0.011   0.084
  934SOL    HW2 2884   3.124   0.014   0.188
  935SOL     OW 2885   3.162   0.453   0.691
  935SOL    HW1 2886   3.103   0.533   0.695
  935SOL    HW2 2887   3.177   0.418   0.784
  936SOL     OW 2888   3.455   0.221   0.882
  936SOL    HW1 2889   3.371   0.220   0.936
  936SOL    HW2 2890   3.457   0.304   0.826
  937SOL     OW 2891   1.901   1.077   0.300
  937SOL    HW1 2892   2.000   1.066   0.291
  937SOL    HW2 2893   1.861   0.991   0.332
  938SOL     OW 2894   2.737   1.646   0.337
  938SOL    HW1 2895   2.660   1.611   0.283
  938SOL    HW2 2896   2.705   1.717   0.399
  939SOL     OW 2897   2.092   0.628   1.975
  939SOL    HW1 2898   1.999   0.626   2.012
  939SOL    HW2 2899   2.093   0.589   1.883
  940SOL     OW 2900   2.087   0.275   2.858
  940SOL    HW1 2901   2.122   0.258   2.950
  940SOL    HW2 2902   1.999   0.230   2.846
  941SOL     OW 2903   1.881   0.368   2.509
  941SOL    HW1 2904   1.799   0.411   2.548
  941SOL    HW2 2905   1.853   0.295   2.446
  942SOL     OW 2906   2.431   1.275   3.027
  942SOL    HW1 2907   2.338   1.268   2.990
  942SOL    HW2 2908   2.442   1.364   3.071
  943SOL     OW 2909   3.417   1.511   2.565
  943SOL    HW1 2910   3.360   1.495   2.646
  943SOL    HW2 2911   3.358   1.521   2.485
  944SOL     OW 2912   2.997   0.703   2.579
  944SOL    HW1 2913   3.054   0.781   2.554
  944SOL    HW2 2914   2.937   0.729   2.655
  945SOL     OW 2915   2.630   1.144   2.885
  945SOL    HW1 2916   2.552   1.161   2.945
  945SOL    HW2 2917   2.664   1.231   2.849
  946SOL     OW 2918   2.547   1.012   2.527
  946SOL    HW1 2919   2.616   0.996   2.597
  946SOL    HW2 2920   2.474   1.069   2.565
  947SOL     OW 2921   2.197   1.435   2.923
  947SOL    HW1 2922   2.119   1.404   2.870
  947SOL    HW2 2923   2.255   1.493   2.866
  948SOL     OW 2924   3.322   1.505   3.201
  948SOL    HW1 2925   3.346   1.599   3.227
  948SOL    HW2 2926   3.306   1.451   3.283
  949SOL     OW 2927   2.300   0.392   3.361
  949SOL    HW1 2928   2.382   0.336   3.370
  949SOL    HW2 2929   2.219   0.334   3.365
  950SOL     OW 2930   2.092   1.434   2.400
  950SOL    HW1 2931   2.066   1.530   2.400
  950SOL    HW2 2932   2.021   1.380   2.445
  951SOL     OW 2933   2.102   1.091   2.748
  951SOL    HW1 2934   2.116   1.007   2.800
  951SOL    HW2 2935   2.047   1.155   2.803
  952SOL     OW 2936   2.482   1.786   3.301
  952SOL    HW1 2937   2.390   1.769   3.336
  952SOL    HW2 2938   2.510   1.878   3.327
  953SOL     OW 2939   2.468   0.964   1.985
  953SOL    HW1 2940   2.475   1.048   1.931
  953SOL    HW2 2941   2.514   0.977   2.073
  954SOL     OW 2942   3.456   0.114   3.342
  954SOL    HW1 2943   3.438   0.181   3.270
  954SOL    HW2 2944   3.453   0.160   3.431
  955SOL     OW 2945   1.984   0.643   2.425
  955SOL    HW1 2946   1.939   0.555   2.442
  955SOL    HW2 2947   1.983   0.697   2.509
  956SOL     OW 2948   3.551   0.922   2.474
  956SOL    HW1 2949   3.646   0.893   2.482
  956SOL    HW2 2950   3.543   0.987   2.399
  957SOL     OW 2951   1.975   0.737   3.459
  957SOL    HW1 2952   2.063   0.724   3.504
  957SOL    HW2 2953   1.962   0.834   3.437
  958SOL     OW 2954   2.475   1.365   2.588
  958SOL    HW1 2955   2.426   1.278   2.597
  958SOL    HW2 2956   2.452   1.408   2.501
  959SOL     OW 2957   3.155   1.228   3.285
  959SOL    HW1 2958   3.192   1.155   3.227
  959SOL    HW2 2959   3.207   1.233   3.370
  960SOL     OW 2960   2.671   0.004   2.364
  960SOL    HW1 2961   2.711   0.095   2.355
  960SOL    HW2 2962   2.571   0.012   2.370
  961SOL     OW 2963   2.059   0.976   3.126
  961SOL    HW1 2964   2.148   0.931   3.112
  961SOL    HW2 2965   1.986   0.911   3.107
  962SOL     OW 2966   3.387   0.999   2.052
  962SOL    HW1 2967   3.324   0.923   2.065
  962SOL    HW2 2968   3.435   1.017   2.138
  963SOL     OW 2969   3.328   1.417   2.815
  963SOL    HW1 2970   3.269   1.423   2.895
  963SOL    HW2 2971   3.313   1.329   2.769
  964SOL     OW 2972   3.529   1.714   2.434
  964SOL    HW1 2973   3.488   1.691   2.346
  964SOL    HW2 2974   3.511   1.640   2.499
  965SOL     OW 2975   2.460   0.729   2.132
  965SOL    HW1 2976   2.484   0.798   2.064
  965SOL    HW2 2977   2.382   0.762   2.186
  966SOL     OW 2978   3.143   0.345   2.806
  966SOL    HW1 2979   3.057   0.295   2.793
  966SOL    HW2 2980   3.205   0.291   2.862
  967SOL     OW 2981   3.438   1.662   2.169
  967SOL    HW1 2982   3.527   1.708   2.172
  967SOL    HW2 2983   3.417   1.638   2.074
  968SOL     OW 2984   2.669   0.605   3.327
  968SOL    HW1 2985   2.622   0.602   3.416
  968SOL    HW2 2986   2.618   0.550   3.261
  969SOL     OW 2987   2.835   0.890   3.434
  969SOL    HW1 2988   2.881   0.806   3.405
  969SOL    HW2 2989   2.779   0.924   3.359
  970SOL     OW 2990   2.853   0.410   3.104
  970SOL    HW1 2991   2.776   0.444   3.158
  970SOL    HW2 2992   2.819   0.359   3.025
  971SOL     OW 2993   2.903   0.701   2.291
  971SOL    HW1 2994   2.929   0.697   2.387
  971SOL    HW2 2995   2.818   0.650   2.277
  972SOL     OW 2996   1.938   0.811   2.651
  972SOL    HW1 2997   2.037   0.799   2.660
  972SOL    HW2 2998   1.914   0.906   2.672
  973SOL     OW 2999   1.992   1.821   3.433
  973SOL    HW1 3000   1.982   1.806   3.532
  973SOL    HW2 3001   1.906   1.857   3.397
  974SOL     OW 3002   2.727   0.348   2.057
  974SOL    HW1 3003   2.786   0.411   2.008
  974SOL    HW2 3004   2.746   0.254   2.028
  975SOL     OW 3005   3.224   1.144   2.407
  975SOL    HW1 3006   3.307   1.115   2.359
  975SOL    HW2 3007   3.175   1.211   2.351
  976SOL     OW 3008   2.412   0.196   2.747
  976SOL    HW1 3009   2.407   0.191   2.847
  976SOL    HW2 3010   2.414   0.292   2.718
  977SOL     OW 3011   2.870   1.456   2.339
  977SOL    HW1 3012   2.824   1.528   2.287
  977SOL    HW2 3013   2.866   1.476   2.437
  978SOL     OW 3014   2.213   1.801   2.715
  978SOL    HW1 3015   2.263   1.715   2.721
  978SOL    HW2 3016   2.278   1.878   2.712
  979SOL     OW 3017   3.089   1.550   3.368
  979SOL    HW1 3018   3.095   1.473   3.432
  979SOL    HW2 3019   3.037   1.524   3.288
  980SOL     OW 3020   2.183   0.943   2.104
  980SOL    HW1 3021   2.265   0.982   2.062
  980SOL    HW2 3022   2.156   0.861   2.055
  981SOL     OW 3023   3.320   0.735   2.590
  981SOL    HW1 3024   3.315   0.670   2.665
  981SOL    HW2 3025   3.400   0.794   2.603
  982SOL     OW 3026   2.323   1.266   3.589
  982SOL    HW1 3027   2.273   1.267   3.503
  982SOL    HW2 3028   2.260   1.248   3.665
  983SOL     OW 3029   2.973   1.776   2.099
  983SOL    HW1 3030   2.913   1.714   2.149
  983SOL    HW2 3031   3.004   1.732   2.014
  984SOL     OW 3032   2.064   0.285   3.360
  984SOL    HW1 3033   1.984   0.345   3.347
  984SOL    HW2 3034   2.054   0.236   3.446
  985SOL     OW 3035   2.326   1.743   2.185
  985SOL    HW1 3036   2.359   1.782   2.271
  985SOL    HW2 3037   2.402   1.736   2.120
  986SOL     OW 3038   3.262   0.107   2.288
  986SOL    HW1 3039   3.238   0.070   2.198
  986SOL    HW2 3040   3.361   0.123   2.292
  987SOL     OW 3041   2.111   1.785   3.103
  987SOL    HW1 3042   2.168   1.720   3.153
  987SOL    HW2 3043   2.095   1.752   3.010
  988SOL     OW 3044   2.802   1.698   2.766
  988SOL    HW1 3045   2.882   1.641   2.787
  988SOL    HW2 3046   2.753   1.658   2.689
  989SOL     OW 3047   2.244   0.700   2.342
  989SOL    HW1 3048   2.289   0.610   2.339
  989SOL    HW2 3049   2.150   0.689   2.375
  990SOL     OW 3050   2.476   0.122   1.979
  990SOL    HW1 3051   2.574   0.100   1.986
  990SOL    HW2 3052   2.445   0.105   1.886
  991SOL     OW 3053   2.750   1.514   3.057
  991SOL    HW1 3054   2.727   1.489   2.963
  991SOL    HW2 3055   2.811   1.445   3.096
  992SOL     OW 3056   3.213   0.590   3.295
  992SOL    HW1 3057   3.241   0.547   3.380
  992SOL    HW2 3058   3.238   0.686   3.296
  993SOL     OW 3059   2.665   1.402   2.786
  993SOL    HW1 3060   2.755   1.416   2.744
  993SOL    HW2 3061   2.594   1.404   2.715
  994SOL     OW 3062   2.784   0.503   2.761
  994SOL    HW1 3063   2.759   0.494   2.665
  994SOL    HW2 3064   2.832   0.421   2.792
  995SOL     OW 3065   2.401   0.064   2.374
  995SOL    HW1 3066   2.320   0.065   2.432
  995SOL    HW2 3067   2.404   0.147   2.319
  996SOL     OW 3068   3.296   1.188   1.903
  996SOL    HW1 3069   3.328   1.112   1.960
  996SOL    HW2 3070   3.204   1.215   1.933
  997SOL     OW 3071   2.159   0.035   2.033
  997SOL    HW1 3072   2.208   0.119   2.012
  997SOL    HW2 3073   2.221  -0.030   2.078
  998SOL     OW 3074   2.797   0.236   2.342
  998SOL    HW1 3075   2.749   0.277   2.264
  998SOL    HW2 3076   2.896   0.234   2.323
  999SOL     OW 3077   2.938   0.683   3.326
  999SOL    HW1 3078   2.858   0.622   3.329
  999SOL    HW2 3079   3.019   0.630   3.302
 1000SOL     OW 3080   3.089   1.570   2.655
 1000SOL    HW1 3081   3.110   1.644   2.590
 1000SOL    HW2 3082   3.157   1.570   2.728
 1001SOL     OW 3083   2.321   1.152   2.603
 1001SOL    HW1 3084   2.250   1.125   2.668
 1001SOL    HW2 3085   2.295   1.124   2.510
 1002SOL     OW 3086   3.133   1.797   2.453
 1002SOL    HW1 3087   3.177   1.861   2.389
 1002SOL    HW2 3088   3.083   1.849   2.523
 1003SOL     OW 3089   2.894   0.549   1.878
 1003SOL    HW1 3090   2.853   0.631   1.839
 1003SOL    HW2 3091   2.958   0.575   1.951
 1004SOL     OW 3092   1.940   0.556   3.248
 1004SOL    HW1 3093   2.032   0.555   3.207
 1004SOL    HW2 3094   1.934   0.630   3.315
 1005SOL     OW 3095   2.423   0.222   3.009
 1005SOL    HW1 3096   2.461   0.138   3.046
 1005SOL    HW2 3097   2.335   0.241   3.053
 1006SOL     OW 3098   2.728   0.454   2.504
 1006SOL    HW1 3099   2.696   0.526   2.442
 1006SOL    HW2 3100   2.752   0.373   2.451
 1007SOL     OW 3101   2.879   0.039   2.615
 1007SOL    HW1 3102   2.807   0.044   2.546
 1007SOL    HW2 3103   2.855  -0.030   2.684
 1008SOL     OW 3104   3.291   1.173   2.729
 1008SOL    HW1 3105   3.236   1.089   2.722
 1008SOL    HW2 3106   3.317   1.202   2.637
 1009SOL     OW 3107   3.328   0.590   2.854
 1009SOL    HW1 3108   3.298   0.495   2.861
 1009SOL    HW2 3109   3.401   0.606   2.920
 1010SOL     OW 3110   3.719   0.833   2.239
 1010SOL    HW1 3111   3.761   0.769   2.303
 1010SOL    HW2 3112   3.681   0.782   2.161
 1011SOL     OW 3113   2.350   1.385   2.036
 1011SOL    HW1 3114   2.263   1.370   2.083
 1011SOL    HW2 3115   2.333   1.411   1.941
 1012SOL     OW 3116   3.252   0.575   1.940
 1012SOL    HW1 3117   3.198   0.554   2.021
 1012SOL    HW2 3118   3.343   0.534   1.949
 1013SOL     OW 3119   2.389   0.256   2.190
 1013SOL    HW1 3120   2.416   0.197   2.115
 1013SOL    HW2 3121   2.389   0.351   2.159
 1014SOL     OW 3122   2.926   1.347   3.202
 1014SOL    HW1 3123   2.846   1.324   3.257
 1014SOL    HW2 3124   3.009   1.321   3.251
 1015SOL     OW 3125   2.973   1.195   2.962
 1015SOL    HW1 3126   2.933   1.239   3.043
 1015SOL    HW2 3127   2.932   1.232   2.879
 1016SOL     OW 3128   3.500   1.099   2.941
 1016SOL    HW1 3129   3.505   1.180   3.000
 1016SOL    HW2 3130   3.414   1.101   2.890
 1017SOL     OW 3131   2.777   0.089   3.264
 1017SOL    HW1 3132   2.802   0.069   3.169
 1017SOL    HW2 3133   2.849   0.145   3.306
 1018SOL     OW 3134   2.567   1.050   2.230
 1018SOL    HW1 3135   2.553   1.057   2.329
 1018SOL    HW2 3136   2.651   0.999   2.212
 1019SOL     OW 3137   2.272   0.813   3.113
 1019SOL    HW1 3138   2.358   0.825   3.163
 1019SOL    HW2 3139   2.230   0.726   3.140
 1020SOL     OW 3140   3.136   0.386   3.124
 1020SOL    HW1 3141   3.157   0.460   3.188
 1020SOL    HW2 3142   3.047   0.403   3.081
 1021SOL     OW 3143   1.926   1.564   3.193
 1021SOL    HW1 3144   1.880   1.646   3.159
 1021SOL    HW2 3145   2.024   1.583   3.202
 1022SOL     OW 3146   2.229   1.100   2.363
 1022SOL    HW1 3147   2.222   1.183   2.307
 1022SOL    HW2 3148   2.233   1.020   2.303
 1023SOL     OW 3149   2.428   0.537   2.727
 1023SOL    HW1 3150   2.440   0.603   2.653
 1023SOL    HW2 3151   2.474   0.571   2.810
 1024SOL     OW 3152   3.114   1.348   2.250
 1024SOL    HW1 3153   3.164   1.425   2.290
 1024SOL    HW2 3154   3.019   1.350   2.282
 1025SOL     OW 3155   3.134   1.445   3.004
 1025SOL    HW1 3156   3.181   1.458   3.091
 1025SOL    HW2 3157   3.068   1.371   3.013
 1026SOL     OW 3158   3.444   0.639   2.334
 1026SOL    HW1 3159   3.413   0.700   2.407
 1026SOL    HW2 3160   3.494   0.691   2.265
 1027SOL     OW 3161   2.216   1.510   3.191
 1027SOL    HW1 3162   2.195   1.466   3.104
 1027SOL    HW2 3163   2.313   1.536   3.194
 1028SOL     OW 3164   2.264   0.751   3.460
 1028SOL    HW1 3165   2.332   0.806   3.413
 1028SOL    HW2 3166   2.304   0.663   3.487
 1029SOL     OW 3167   3.449   0.779   3.532
 1029SOL    HW1 3168   3.357   0.817   3.527
 1029SOL    HW2 3169   3.509   0.826   3.467
 1030SOL     OW 3170   2.435   0.870   2.891
 1030SOL    HW1 3171   2.479   0.959   2.882
 1030SOL    HW2 3172   2.372   0.870   2.968
 1031SOL     OW 3173   3.222   0.862   2.907
 1031SOL    HW1 3174   3.147   0.862   2.841
 1031SOL    HW2 3175   3.259   0.770   2.916
 1032SOL     OW 3176   3.071   0.525   2.137
 1032SOL    HW1 3177   3.084   0.441   2.191
 1032SOL    HW2 3178   3.042   0.599   2.197
 1033SOL     OW 3179   2.169   0.213   3.093
 1033SOL    HW1 3180   2.146   0.250   3.183
 1033SOL    HW2 3181   2.139   0.118   3.087
 1034SOL     OW 3182   1.899   1.310   3.144
 1034SOL    HW1 3183   1.952   1.261   3.212
 1034SOL    HW2 3184   1.921   1.408   3.149
 1035SOL     OW 3185   2.594   0.634   2.926
 1035SOL    HW1 3186   2.653   0.608   2.850
 1035SOL    HW2 3187   2.566   0.730   2.915
 1036SOL     OW 3188   2.169   0.063   2.480
 1036SOL    HW1 3189   2.158   0.157   2.513
 1036SOL    HW2 3190   2.164   0.000   2.557
 1037SOL     OW 3191   3.484   0.367   2.236
 1037SOL    HW1 3192   3.486   0.291   2.300
 1037SOL    HW2 3193   3.436   0.444   2.276
 1038SOL     OW 3194   2.885   0.766   2.828
 1038SOL    HW1 3195   2.900   0.787   2.924
 1038SOL    HW2 3196   2.855   0.671   2.819
 1039SOL     OW 3197   3.402   0.274   1.987
 1039SOL    HW1 3198   3.341   0.199   2.010
 1039SOL    HW2 3199   3.424   0.326   2.070
 1040SOL     OW 3200   3.165   0.838   1.904
 1040SOL    HW1 3201   3.199   0.745   1.919
 1040SOL    HW2 3202   3.183   0.865   1.809
 1041SOL     OW 3203   2.930   1.333   2.711
 1041SOL    HW1 3204   2.937   1.249   2.656
 1041SOL    HW2 3205   2.992   1.402   2.675
 1042SOL     OW 3206   2.181   0.810   2.811
 1042SOL    HW1 3207   2.274   0.846   2.816
 1042SOL    HW2 3208   2.175   0.725   2.863
 1043SOL     OW 3209   2.201   0.509   2.868
 1043SOL    HW1 3210   2.149   0.426   2.851
 1043SOL    HW2 3211   2.278   0.514   2.804
 1044SOL     OW 3212   3.022   0.207   3.339
 1044SOL    HW1 3213   3.022   0.271   3.416
 1044SOL    HW2 3214   3.050   0.255   3.256
 1045SOL     OW 3215   1.870   1.326   2.062
 1045SOL    HW1 3216   1.777   1.347   2.031
 1045SOL    HW2 3217   1.880   1.227   2.075
 1046SOL     OW 3218   1.950   1.801   2.789
 1046SOL    HW1 3219   1.908   1.715   2.762
 1046SOL    HW2 3220   2.044   1.804   2.755
 1047SOL     OW 3221   2.366   1.568   2.772
 1047SOL    HW1 3222   2.432   1.642   2.781
 1047SOL    HW2 3223   2.410   1.489   2.730
 1048SOL     OW 3224   2.864   0.796   3.100
 1048SOL    HW1 3225   2.905   0.764   3.186
 1048SOL    HW2 3226   2.768   0.769   3.097
 1049SOL     OW 3227   1.902   0.544   2.976
 1049SOL    HW1 3228   1.987   0.511   2.935
 1049SOL    HW2 3229   1.915   0.559   3.074
 1050SOL     OW 3230   2.677   0.572   2.187
 1050SOL    HW1 3231   2.684   0.483   2.141
 1050SOL    HW2 3232   2.583   0.606   2.179
 1051SOL     OW 3233   2.114   1.564   3.606
 1051SOL    HW1 3234   2.084   1.621   3.682
 1051SOL    HW2 3235   2.107   1.467   3.632
 1052SOL     OW 3236   2.533   0.464   3.131
 1052SOL    HW1 3237   2.499   0.375   3.101
 1052SOL    HW2 3238   2.559   0.518   3.051
 1053SOL     OW 3239   2.792   1.678   3.327
 1053SOL    HW1 3240   2.768   1.660   3.232
 1053SOL    HW2 3241   2.822   1.772   3.337
 1054SOL     OW 3242   2.335   0.500   2.053
 1054SOL    HW1 3243   2.396   0.580   2.057
 1054SOL    HW2 3244   2.240   0.531   2.060
 1055SOL     OW 3245   2.021   1.137   3.328
 1055SOL    HW1 3246   2.043   1.076   3.404
 1055SOL    HW2 3247   2.031   1.088   3.242
 1056SOL     OW 3248   3.209   1.059   3.096
 1056SOL    HW1 3249   3.233   0.996   3.022
 1056SOL    HW2 3250   3.119   1.099   3.078
 1057SOL     OW 3251   3.164   0.855   2.171
 1057SOL    HW1 3252   3.078   0.824   2.213
 1057SOL    HW2 3253   3.160   0.841   2.072
 1058SOL     OW 3254   3.621   1.747   3.016
 1058SOL    HW1 3255   3.682   1.777   2.943
 1058SOL    HW2 3256   3.583   1.658   2.994
 1059SOL     OW 3257   3.114   1.731   2.990
 1059SOL    HW1 3258   3.198   1.736   2.936
 1059SOL    HW2 3259   3.091   1.635   3.008
 1060SOL     OW 3260   1.945   1.258   2.884
 1060SOL    HW1 3261   1.940   1.257   2.984
 1060SOL    HW2 3262   1.862   1.217   2.846
 1061SOL     OW 3263   3.250   1.573   2.339
 1061SOL    HW1 3264   3.317   1.585   2.265
 1061SOL    HW2 3265   3.210   1.662   2.362
 1062SOL     OW 3266   3.142   0.927   2.534
 1062SOL    HW1 3267   3.202   0.846   2.536
 1062SOL    HW2 3268   3.182   0.996   2.474
 1063SOL     OW 3269   2.692   1.273   3.284
 1063SOL    HW1 3270   2.687   1.306   3.379
 1063SOL    HW2 3271   2.606   1.292   3.238
 1064SOL     OW 3272   2.534   1.616   2.016
 1064SOL    HW1 3273   2.543   1.626   1.917
 1064SOL    HW2 3274   2.494   1.527   2.037
 1065SOL     OW 3275   2.125   0.326   2.582
 1065SOL    HW1 3276   2.046   0.377   2.548
 1065SOL    HW2 3277   2.116   0.311   2.680
 1066SOL     OW 3278   3.056   1.612   1.893
 1066SOL    HW1 3279   3.062   1.519   1.930
 1066SOL    HW2 3280   2.997   1.612   1.813
 1067SOL     OW 3281   2.684   1.002   3.234
 1067SOL    HW1 3282   2.724   1.001   3.142
 1067SOL    HW2 3283   2.694   1.094   3.274
 1068SOL     OW 3284   2.778   0.910   2.153
 1068SOL    HW1 3285   2.841   0.948   2.085
 1068SOL    HW2 3286   2.818   0.827   2.192
 1069SOL     OW 3287   3.366   1.607   1.906
 1069SOL    HW1 3288   3.274   1.644   1.913
 1069SOL    HW2 3289   3.404   1.627   1.816
 1070SOL     OW 3290   2.234   1.288   3.352
 1070SOL    HW1 3291   2.221   1.381   3.318
 1070SOL    HW2 3292   2.150   1.236   3.339
 1071SOL     OW 3293   2.901   1.098   2.558
 1071SOL    HW1 3294   2.831   1.051   2.612
 1071SOL    HW2 3295   2.960   1.030   2.515
 1072SOL     OW 3296   2.876   0.236   2.833
 1072SOL    HW1 3297   2.868   0.200   2.740
 1072SOL    HW2 3298   2.874   0.160   2.898
 1073SOL     OW 3299   2.452   1.487   2.353
 1073SOL    HW1 3300   2.494   1.429   2.283
 1073SOL    HW2 3301   2.408   1.566   2.309
 1074SOL     OW 3302   2.117   1.348   2.152
 1074SOL    HW1 3303   2.021   1.349   2.125
 1074SOL    HW2 3304   2.129   1.401   2.236
 1075SOL     OW 3305   1.967   1.013   3.588
 1075SOL    HW1 3306   1.890   0.980   3.642
 1075SOL    HW2 3307   2.052   0.983   3.630
 1076SOL     OW 3308   2.534   0.203   3.351
 1076SOL    HW1 3309   2.624   0.187   3.311
 1076SOL    HW2 3310   2.542   0.208   3.450
 1077SOL     OW 3311   1.937   0.345   1.895
 1077SOL    HW1 3312   1.845   0.317   1.866
 1077SOL    HW2 3313   1.968   0.422   1.839
 1078SOL     OW 3314   3.302   0.856   3.260
 1078SOL    HW1 3315   3.245   0.908   3.197
 1078SOL    HW2 3316   3.398   0.868   3.236
 1079SOL     OW 3317   1.934   0.166   2.180
 1079SOL    HW1 3318   1.917   0.249   2.126
 1079SOL    HW2 3319   2.024   0.129   2.158
 1080SOL     OW 3320   3.045   1.335   1.981
 1080SOL    HW1 3321   2.946   1.324   1.983
 1080SOL    HW2 3322   3.079   1.350   2.074
 1081SOL     OW 3323   2.475   0.842   3.293
 1081SOL    HW1 3324   2.531   0.923   3.276
 1081SOL    HW2 3325   2.534   0.762   3.296
 1082SOL     OW 3326   3.355   1.767   2.821
 1082SOL    HW1 3327   3.388   1.831   2.752
 1082SOL    HW2 3328   3.421   1.761   2.896
 1083SOL     OW 3329   2.578   0.565   3.570
 1083SOL    HW1 3330   2.597   0.630   3.644
 1083SOL    HW2 3331   2.638   0.485   3.579
 1084SOL     OW 3332   2.252   1.741   3.422
 1084SOL    HW1 3333   2.161   1.782   3.420
 1084SOL    HW2 3334   2.245   1.647   3.454
 1085SOL     OW 3335   3.536   0.883   3.116
 1085SOL    HW1 3336   3.509   0.794   3.079
 1085SOL    HW2 3337   3.537   0.951   3.043
 1086SOL     OW 3338   3.087   0.325   2.311
 1086SOL    HW1 3339   3.152   0.251   2.300
 1086SOL    HW2 3340   3.107   0.375   2.395
 1087SOL     OW 3341   2.456   0.745   2.514
 1087SOL    HW1 3342   2.506   0.830   2.495
 1087SOL    HW2 3343   2.368   0.747   2.466
 1088SOL     OW 3344   2.721   1.374   1.878
 1088SOL    HW1 3345   2.675   1.389   1.966
 1088SOL    HW2 3346   2.765   1.459   1.848
 1089SOL     OW 3347   2.523   1.790   2.815
 1089SOL    HW1 3348   2.477   1.878   2.802
 1089SOL    HW2 3349   2.622   1.802   2.808
 1090SOL     OW 3350   2.721   0.956   2.723
 1090SOL    HW1 3351   2.775   0.887   2.771
 1090SOL    HW2 3352   2.689   1.025   2.789
 1091SOL     OW 3353   2.945   0.984   1.949
 1091SOL    HW1 3354   2.922   1.037   1.867
 1091SOL    HW2 3355   3.026   0.928   1.930
 1092SOL     OW 3356   3.723   1.569   2.713
 1092SOL    HW1 3357   3.652   1.557   2.643
 1092SOL    HW2 3358   3.724   1.490   2.773
 1093SOL     OW 3359   1.941   1.240   2.515
 1093SOL    HW1 3360   1.940   1.193   2.603
 1093SOL    HW2 3361   2.023   1.212   2.464
 1094SOL     OW 3362   2.534   1.391   3.486
 1094SOL    HW1 3363   2.456   1.341   3.524
 1094SOL    HW2 3364   2.531   1.486   3.517
 1095SOL     OW 3365   3.686   0.192   3.089
 1095SOL    HW1 3366   3.682   0.102   3.133
 1095SOL    HW2 3367   3.689   0.181   2.990
 1096SOL     OW 3368   2.290   0.424   2.382
 1096SOL    HW1 3369   2.320   0.352   2.320
 1096SOL    HW2 3370   2.251   0.384   2.465
 1097SOL     OW 3371   2.179   0.547   3.142
 1097SOL    HW1 3372   2.217   0.488   3.214
 1097SOL    HW2 3373   2.219   0.521   3.054
 1098SOL     OW 3374   2.674   1.586   2.549
 1098SOL    HW1 3375   2.706   1.596   2.455
 1098SOL    HW2 3376   2.595   1.524   2.551
 1099SOL     OW 3377   3.286   0.214   2.974
 1099SOL    HW1 3378   3.338   0.149   3.029
 1099SOL    HW2 3379   3.237   0.277   3.035
 1100SOL     OW 3380   2.863   0.034   3.016
 1100SOL    HW1 3381   2.800  -0.038   2.985
 1100SOL    HW2 3382   2.956  -0.002   3.016
 1101SOL     OW 3383   2.632   1.330   2.163
 1101SOL    HW1 3384   2.586   1.243   2.180
 1101SOL    HW2 3385   2.723   1.327   2.204
 1102SOL     OW 3386   2.480   1.567   3.146
 1102SOL    HW1 3387   2.475   1.649   3.203
 1102SOL    HW2 3388   2.569   1.564   3.101
 1103SOL     OW 3389   3.214   0.052   2.030
 1103SOL    HW1 3390   3.249   0.011   1.946
 1103SOL    HW2 3391   3.124   0.014   2.050
 1104SOL     OW 3392   3.162   0.453   2.553
 1104SOL    HW1 3393   3.103   0.533   2.557
 1104SOL    HW2 3394   3.177   0.418   2.646
 1105SOL     OW 3395   3.455   0.221   2.744
 1105SOL    HW1 3396   3.371   0.220   2.798
 1105SOL    HW2 3397   3.457   0.304   2.688
 1106SOL     OW 3398   1.901   1.077   2.162
 1106SOL    HW1 3399   2.000   1.066   2.153
 1106SOL    HW2 3400   1.861   0.991   2.194
 1107SOL     OW 3401   2.737   1.646   2.199
 1107SOL    HW1 3402   2.660   1.611   2.145
 1107SOL    HW2 3403   2.705   1.717   2.261
 1108SOL     OW 3404   2.092   2.490   0.113
 1108SOL    HW1 3405   1.999   2.488   0.150
 1108SOL    HW2 3406   2.093   2.451   0.021
 1109SOL     OW 3407   2.087   2.137   0.996
 1109SOL    HW1 3408   2.122   2.120   1.088
 1109SOL    HW2 3409   1.999   2.092   0.984
 1110SOL     OW 3410   1.881   2.230   0.647
 1110SOL    HW1 3411   1.799   2.273   0.686
 1110SOL    HW2 3412   1.853   2.157   0.584
 1111SOL     OW 3413   2.431   3.137   1.165
 1111SOL    HW1 3414   2.338   3.130   1.128
 1111SOL    HW2 3415   2.442   3.226   1.209
 1112SOL     OW 3416   3.417   3.373   0.703
 1112SOL    HW1 3417   3.360   3.357   0.784
 1112SOL    HW2 3418   3.358   3.383   0.623
 1113SOL     OW 3419   2.997   2.565   0.717
 1113SOL    HW1 3420   3.054   2.643   0.692
 1113SOL    HW2 3421   2.937   2.591   0.793
 1114SOL     OW 3422   2.630   3.006   1.023
 1114SOL    HW1 3423   2.552   3.023   1.083
 1114SOL    HW2 3424   2.664   3.093   0.987
 1115SOL     OW 3425   2.712   2.660   1.823
 1115SOL    HW1 3426   2.708   2.736   1.888
 1115SOL    HW2 3427   2.734   2.696   1.732
 1116SOL     OW 3428   2.547   2.874   0.665
 1116SOL    HW1 3429   2.616   2.858   0.735
 1116SOL    HW2 3430   2.474   2.931   0.703
 1117SOL     OW 3431   2.548   3.023   1.803
 1117SOL    HW1 3432   2.608   3.102   1.817
 1117SOL    HW2 3433   2.462   3.054   1.762
 1118SOL     OW 3434   2.197   3.297   1.061
 1118SOL    HW1 3435   2.119   3.266   1.008
 1118SOL    HW2 3436   2.255   3.355   1.004
 1119SOL     OW 3437   3.322   3.367   1.339
 1119SOL    HW1 3438   3.346   3.461   1.365
 1119SOL    HW2 3439   3.306   3.313   1.421
 1120SOL     OW 3440   2.300   2.254   1.499
 1120SOL    HW1 3441   2.382   2.198   1.508
 1120SOL    HW2 3442   2.219   2.196   1.503
 1121SOL     OW 3443   2.989   3.203   1.690
 1121SOL    HW1 3444   3.036   3.203   1.778
 1121SOL    HW2 3445   2.941   3.116   1.679
 1122SOL     OW 3446   2.092   3.296   0.538
 1122SOL    HW1 3447   2.066   3.392   0.538
 1122SOL    HW2 3448   2.021   3.242   0.583
 1123SOL     OW 3449   2.102   2.953   0.886
 1123SOL    HW1 3450   2.116   2.869   0.938
 1123SOL    HW2 3451   2.047   3.017   0.941
 1124SOL     OW 3452   2.468   2.826   0.123
 1124SOL    HW1 3453   2.475   2.910   0.069
 1124SOL    HW2 3454   2.514   2.839   0.211
 1125SOL     OW 3455   3.456   1.976   1.480
 1125SOL    HW1 3456   3.438   2.043   1.408
 1125SOL    HW2 3457   3.453   2.022   1.569
 1126SOL     OW 3458   1.984   2.505   0.563
 1126SOL    HW1 3459   1.939   2.417   0.580
 1126SOL    HW2 3460   1.983   2.559   0.647
 1127SOL     OW 3461   1.889   3.458   0.117
 1127SOL    HW1 3462   1.870   3.362   0.138
 1127SOL    HW2 3463   1.856   3.516   0.192
 1128SOL     OW 3464   3.551   2.784   0.612
 1128SOL    HW1 3465   3.646   2.755   0.620
 1128SOL    HW2 3466   3.543   2.849   0.537
 1129SOL     OW 3467   1.975   2.599   1.597
 1129SOL    HW1 3468   2.063   2.586   1.642
 1129SOL    HW2 3469   1.962   2.696   1.575
 1130SOL     OW 3470   2.475   3.227   0.726
 1130SOL    HW1 3471   2.426   3.140   0.735
 1130SOL    HW2 3472   2.452   3.270   0.639
 1131SOL     OW 3473   3.155   3.090   1.423
 1131SOL    HW1 3474   3.192   3.017   1.365
 1131SOL    HW2 3475   3.207   3.095   1.508
 1132SOL     OW 3476   2.671   1.866   0.502
 1132SOL    HW1 3477   2.711   1.957   0.493
 1132SOL    HW2 3478   2.571   1.874   0.508
 1133SOL     OW 3479   2.059   2.838   1.264
 1133SOL    HW1 3480   2.148   2.793   1.250
 1133SOL    HW2 3481   1.986   2.773   1.245
 1134SOL     OW 3482   3.387   2.861   0.190
 1134SOL    HW1 3483   3.324   2.785   0.203
 1134SOL    HW2 3484   3.435   2.879   0.276
 1135SOL     OW 3485   3.328   3.279   0.953
 1135SOL    HW1 3486   3.269   3.285   1.033
 1135SOL    HW2 3487   3.313   3.191   0.907
 1136SOL     OW 3488   3.529   3.576   0.572
 1136SOL    HW1 3489   3.488   3.553   0.484
 1136SOL    HW2 3490   3.511   3.502   0.637
 1137SOL     OW 3491   2.460   2.591   0.270
 1137SOL    HW1 3492   2.484   2.660   0.202
 1137SOL    HW2 3493   2.382   2.624   0.324
 1138SOL     OW 3494   3.143   2.207   0.944
 1138SOL    HW1 3495   3.057   2.157   0.931
 1138SOL    HW2 3496   3.205   2.153   1.000
 1139SOL     OW 3497   3.438   3.524   0.307
 1139SOL    HW1 3498   3.527   3.570   0.310
 1139SOL    HW2 3499   3.417   3.500   0.212
 1140SOL     OW 3500   2.669   2.467   1.465
 1140SOL    HW1 3501   2.622   2.464   1.554
 1140SOL    HW2 3502   2.618   2.412   1.399
 1141SOL     OW 3503   3.256   2.331   1.674
 1141SOL    HW1 3504   3.236   2.374   1.762
 1141SOL    HW2 3505   3.334   2.269   1.683
 1142SOL     OW 3506   2.835   2.752   1.572
 1142SOL    HW1 3507   2.881   2.668   1.543
 1142SOL    HW2 3508   2.779   2.786   1.497
 1143SOL     OW 3509   2.853   2.272   1.242
 1143SOL    HW1 3510   2.776   2.306   1.296
 1143SOL    HW2 3511   2.819   2.221   1.163
 1144SOL     OW 3512   2.903   2.563   0.429
 1144SOL    HW1 3513   2.929   2.559   0.525
 1144SOL    HW2 3514   2.818   2.512   0.415
 1145SOL     OW 3515   1.938   2.673   0.789
 1145SOL    HW1 3516   2.037   2.661   0.798
 1145SOL    HW2 3517   1.914   2.768   0.810
 1146SOL     OW 3518   2.727   2.210   0.195
 1146SOL    HW1 3519   2.786   2.273   0.146
 1146SOL    HW2 3520   2.746   2.116   0.166
 1147SOL     OW 3521   3.581   2.447   1.831
 1147SOL    HW1 3522   3.555   2.536   1.795
 1147SOL    HW2 3523   3.579   2.379   1.758
 1148SOL     OW 3524   3.224   3.006   0.545
 1148SOL    HW1 3525   3.307   2.977   0.497
 1148SOL    HW2 3526   3.175   3.073   0.489
 1149SOL     OW 3527   2.412   2.058   0.885
 1149SOL    HW1 3528   2.407   2.053   0.985
 1149SOL    HW2 3529   2.414   2.154   0.856
 1150SOL     OW 3530   2.870   3.318   0.477
 1150SOL    HW1 3531   2.824   3.390   0.425
 1150SOL    HW2 3532   2.866   3.338   0.575
 1151SOL     OW 3533   3.089   3.412   1.506
 1151SOL    HW1 3534   3.095   3.335   1.570
 1151SOL    HW2 3535   3.037   3.386   1.426
 1152SOL     OW 3536   2.183   2.805   0.242
 1152SOL    HW1 3537   2.265   2.844   0.200
 1152SOL    HW2 3538   2.156   2.723   0.193
 1153SOL     OW 3539   3.320   2.597   0.728
 1153SOL    HW1 3540   3.315   2.532   0.803
 1153SOL    HW2 3541   3.400   2.656   0.741
 1154SOL     OW 3542   2.323   3.128   1.727
 1154SOL    HW1 3543   2.273   3.129   1.641
 1154SOL    HW2 3544   2.260   3.110   1.803
 1155SOL     OW 3545   3.262   1.969   0.426
 1155SOL    HW1 3546   3.238   1.932   0.336
 1155SOL    HW2 3547   3.361   1.985   0.430
 1156SOL     OW 3548   2.244   2.562   0.480
 1156SOL    HW1 3549   2.289   2.472   0.477
 1156SOL    HW2 3550   2.150   2.551   0.513
 1157SOL     OW 3551   3.409   2.084   1.729
 1157SOL    HW1 3552   3.404   2.121   1.821
 1157SOL    HW2 3553   3.337   2.015   1.717
 1158SOL     OW 3554   2.476   1.984   0.117
 1158SOL    HW1 3555   2.574   1.962   0.124
 1158SOL    HW2 3556   2.445   1.967   0.024
 1159SOL     OW 3557   2.643   2.126   1.749
 1159SOL    HW1 3558   2.710   2.065   1.792
 1159SOL    HW2 3559   2.570   2.145   1.814
 1160SOL     OW 3560   2.750   3.376   1.195
 1160SOL    HW1 3561   2.727   3.351   1.101
 1160SOL    HW2 3562   2.811   3.307   1.234
 1161SOL     OW 3563   3.213   2.452   1.433
 1161SOL    HW1 3564   3.241   2.409   1.518
 1161SOL    HW2 3565   3.238   2.548   1.434
 1162SOL     OW 3566   2.665   3.264   0.924
 1162SOL    HW1 3567   2.755   3.278   0.882
 1162SOL    HW2 3568   2.594   3.266   0.853
 1163SOL     OW 3569   2.784   2.365   0.899
 1163SOL    HW1 3570   2.759   2.356   0.803
 1163SOL    HW2 3571   2.832   2.283   0.930
 1164SOL     OW 3572   2.401   1.926   0.512
 1164SOL    HW1 3573   2.320   1.927   0.570
 1164SOL    HW2 3574   2.404   2.009   0.457
 1165SOL     OW 3575   3.296   3.050   0.041
 1165SOL    HW1 3576   3.328   2.974   0.098
 1165SOL    HW2 3577   3.204   3.077   0.071
 1166SOL     OW 3578   2.159   1.897   0.171
 1166SOL    HW1 3579   2.208   1.981   0.150
 1166SOL    HW2 3580   2.221   1.832   0.216
 1167SOL     OW 3581   2.797   2.098   0.480
 1167SOL    HW1 3582   2.749   2.139   0.402
 1167SOL    HW2 3583   2.896   2.096   0.461
 1168SOL     OW 3584   2.938   2.545   1.464
 1168SOL    HW1 3585   2.858   2.484   1.467
 1168SOL    HW2 3586   3.019   2.492   1.440
 1169SOL     OW 3587   3.089   3.432   0.793
 1169SOL    HW1 3588   3.110   3.506   0.728
 1169SOL    HW2 3589   3.157   3.432   0.866
 1170SOL     OW 3590   2.321   3.014   0.741
 1170SOL    HW1 3591   2.250   2.987   0.806
 1170SOL    HW2 3592   2.295   2.986   0.648
 1171SOL     OW 3593   2.894   2.411   0.016
 1171SOL    HW1 3594   2.853   2.493  -0.023
 1171SOL    HW2 3595   2.958   2.437   0.089
 1172SOL     OW 3596   1.940   2.418   1.386
 1172SOL    HW1 3597   2.032   2.417   1.345
 1172SOL    HW2 3598   1.934   2.492   1.453
 1173SOL     OW 3599   2.423   2.084   1.147
 1173SOL    HW1 3600   2.461   2.000   1.184
 1173SOL    HW2 3601   2.335   2.103   1.191
 1174SOL     OW 3602   2.728   2.316   0.642
 1174SOL    HW1 3603   2.696   2.388   0.580
 1174SOL    HW2 3604   2.752   2.235   0.589
 1175SOL     OW 3605   2.879   1.901   0.753
 1175SOL    HW1 3606   2.807   1.906   0.684
 1175SOL    HW2 3607   2.855   1.832   0.822
 1176SOL     OW 3608   3.291   3.035   0.867
 1176SOL    HW1 3609   3.236   2.951   0.860
 1176SOL    HW2 3610   3.317   3.064   0.775
 1177SOL     OW 3611   3.328   2.452   0.992
 1177SOL    HW1 3612   3.298   2.357   0.999
 1177SOL    HW2 3613   3.401   2.468   1.058
 1178SOL     OW 3614   3.719   2.695   0.377
 1178SOL    HW1 3615   3.761   2.631   0.441
 1178SOL    HW2 3616   3.681   2.644   0.299
 1179SOL     OW 3617   2.350   3.247   0.174
 1179SOL    HW1 3618   2.263   3.232   0.221
 1179SOL    HW2 3619   2.333   3.273   0.079
 1180SOL     OW 3620   3.252   2.437   0.078
 1180SOL    HW1 3621   3.198   2.416   0.159
 1180SOL    HW2 3622   3.343   2.396   0.087
 1181SOL     OW 3623   2.389   2.118   0.328
 1181SOL    HW1 3624   2.416   2.059   0.253
 1181SOL    HW2 3625   2.389   2.213   0.297
 1182SOL     OW 3626   2.926   3.209   1.340
 1182SOL    HW1 3627   2.846   3.186   1.395
 1182SOL    HW2 3628   3.009   3.183   1.389
 1183SOL     OW 3629   3.454   3.491   1.625
 1183SOL    HW1 3630   3.481   3.525   1.535
 1183SOL    HW2 3631   3.533   3.453   1.671
 1184SOL     OW 3632   2.973   3.057   1.100
 1184SOL    HW1 3633   2.933   3.101   1.181
 1184SOL    HW2 3634   2.932   3.094   1.017
 1185SOL     OW 3635   3.500   2.961   1.079
 1185SOL    HW1 3636   3.505   3.042   1.138
 1185SOL    HW2 3637   3.414   2.963   1.028
 1186SOL     OW 3638   2.777   1.951   1.402
 1186SOL    HW1 3639   2.802   1.931   1.307
 1186SOL    HW2 3640   2.849   2.007   1.444
 1187SOL     OW 3641   2.842   2.978   1.719
 1187SOL    HW1 3642   2.743   2.984   1.729
 1187SOL    HW2 3643   2.865   2.898   1.663
 1188SOL     OW 3644   2.567   2.912   0.368
 1188SOL    HW1 3645   2.553   2.919   0.467
 1188SOL    HW2 3646   2.651   2.861   0.350
 1189SOL     OW 3647   2.272   2.675   1.251
 1189SOL    HW1 3648   2.358   2.687   1.301
 1189SOL    HW2 3649   2.230   2.588   1.278
 1190SOL     OW 3650   3.136   2.248   1.262
 1190SOL    HW1 3651   3.157   2.322   1.326
 1190SOL    HW2 3652   3.047   2.265   1.219
 1191SOL     OW 3653   1.926   3.426   1.331
 1191SOL    HW1 3654   1.880   3.508   1.297
 1191SOL    HW2 3655   2.024   3.445   1.340
 1192SOL     OW 3656   2.229   2.962   0.501
 1192SOL    HW1 3657   2.222   3.045   0.445
 1192SOL    HW2 3658   2.233   2.882   0.441
 1193SOL     OW 3659   2.428   2.399   0.865
 1193SOL    HW1 3660   2.440   2.465   0.791
 1193SOL    HW2 3661   2.474   2.433   0.948
 1194SOL     OW 3662   3.114   3.210   0.388
 1194SOL    HW1 3663   3.164   3.287   0.428
 1194SOL    HW2 3664   3.019   3.212   0.420
 1195SOL     OW 3665   3.134   3.307   1.142
 1195SOL    HW1 3666   3.181   3.320   1.229
 1195SOL    HW2 3667   3.068   3.233   1.151
 1196SOL     OW 3668   3.444   2.501   0.472
 1196SOL    HW1 3669   3.413   2.562   0.545
 1196SOL    HW2 3670   3.494   2.553   0.403
 1197SOL     OW 3671   2.216   3.372   1.329
 1197SOL    HW1 3672   2.195   3.328   1.242
 1197SOL    HW2 3673   2.313   3.398   1.332
 1198SOL     OW 3674   2.264   2.613   1.598
 1198SOL    HW1 3675   2.332   2.668   1.551
 1198SOL    HW2 3676   2.304   2.525   1.625
 1199SOL     OW 3677   3.449   2.641   1.670
 1199SOL    HW1 3678   3.357   2.679   1.665
 1199SOL    HW2 3679   3.509   2.688   1.605
 1200SOL     OW 3680   2.875   1.967   1.770
 1200SOL    HW1 3681   2.881   2.052   1.718
 1200SOL    HW2 3682   2.907   1.891   1.713
 1201SOL     OW 3683   2.435   2.732   1.029
 1201SOL    HW1 3684   2.479   2.821   1.020
 1201SOL    HW2 3685   2.372   2.732   1.106
 1202SOL     OW 3686   3.222   2.724   1.045
 1202SOL    HW1 3687   3.147   2.724   0.979
 1202SOL    HW2 3688   3.259   2.632   1.054
 1203SOL     OW 3689   3.071   2.387   0.275
 1203SOL    HW1 3690   3.084   2.303   0.329
 1203SOL    HW2 3691   3.042   2.461   0.335
 1204SOL     OW 3692   2.169   2.075   1.231
 1204SOL    HW1 3693   2.146   2.112   1.321
 1204SOL    HW2 3694   2.139   1.980   1.225
 1205SOL     OW 3695   1.899   3.172   1.282
 1205SOL    HW1 3696   1.952   3.123   1.350
 1205SOL    HW2 3697   1.921   3.270   1.287
 1206SOL     OW 3698   2.594   2.496   1.064
 1206SOL    HW1 3699   2.653   2.470   0.988
 1206SOL    HW2 3700   2.566   2.592   1.053
 1207SOL     OW 3701   2.169   1.925   0.618
 1207SOL    HW1 3702   2.158   2.019   0.651
 1207SOL    HW2 3703   2.164   1.862   0.695
 1208SOL     OW 3704   3.484   2.229   0.374
 1208SOL    HW1 3705   3.486   2.153   0.438
 1208SOL    HW2 3706   3.436   2.306   0.414
 1209SOL     OW 3707   2.885   2.628   0.966
 1209SOL    HW1 3708   2.900   2.649   1.062
 1209SOL    HW2 3709   2.855   2.533   0.957
 1210SOL     OW 3710   2.842   3.435   1.700
 1210SOL    HW1 3711   2.822   3.479   1.612
 1210SOL    HW2 3712   2.881   3.344   1.684
 1211SOL     OW 3713   2.212   2.760   1.804
 1211SOL    HW1 3714   2.288   2.804   1.852
 1211SOL    HW2 3715   2.247   2.713   1.722
 1212SOL     OW 3716   3.402   2.136   0.125
 1212SOL    HW1 3717   3.341   2.061   0.148
 1212SOL    HW2 3718   3.424   2.188   0.208
 1213SOL     OW 3719   3.165   2.700   0.042
 1213SOL    HW1 3720   3.199   2.607   0.057
 1213SOL    HW2 3721   3.183   2.727  -0.053
 1214SOL     OW 3722   2.930   3.195   0.849
 1214SOL    HW1 3723   2.937   3.111   0.794
 1214SOL    HW2 3724   2.992   3.264   0.813
 1215SOL     OW 3725   2.181   2.672   0.949
 1215SOL    HW1 3726   2.274   2.708   0.954
 1215SOL    HW2 3727   2.175   2.587   1.001
 1216SOL     OW 3728   2.201   2.371   1.006
 1216SOL    HW1 3729   2.149   2.288   0.989
 1216SOL    HW2 3730   2.278   2.376   0.942
 1217SOL     OW 3731   3.000   2.242   1.678
 1217SOL    HW1 3732   2.955   2.305   1.742
 1217SOL    HW2 3733   3.093   2.273   1.661
 1218SOL     OW 3734   3.022   2.069   1.477
 1218SOL    HW1 3735   3.022   2.133   1.554
 1218SOL    HW2 3736   3.050   2.117   1.394
 1219SOL     OW 3737   1.870   3.188   0.200
 1219SOL    HW1 3738   1.777   3.209   0.169
 1219SOL    HW2 3739   1.880   3.089   0.213
 1220SOL     OW 3740   2.366   3.430   0.910
 1220SOL    HW1 3741   2.432   3.504   0.919
 1220SOL    HW2 3742   2.410   3.351   0.868
 1221SOL     OW 3743   2.864   2.658   1.238
 1221SOL    HW1 3744   2.905   2.626   1.324
 1221SOL    HW2 3745   2.768   2.631   1.235
 1222SOL     OW 3746   1.902   2.406   1.114
 1222SOL    HW1 3747   1.987   2.373   1.073
 1222SOL    HW2 3748   1.915   2.421   1.212
 1223SOL     OW 3749   2.051   2.382   1.722
 1223SOL    HW1 3750   2.110   2.342   1.652
 1223SOL    HW2 3751   1.993   2.453   1.681
 1224SOL     OW 3752   3.231   2.812   1.660
 1224SOL    HW1 3753   3.270   2.901   1.680
 1224SOL    HW2 3754   3.241   2.792   1.563
 1225SOL     OW 3755   2.677   2.434   0.325
 1225SOL    HW1 3756   2.684   2.345   0.279
 1225SOL    HW2 3757   2.583   2.468   0.317
 1226SOL     OW 3758   2.114   3.426   1.744
 1226SOL    HW1 3759   2.084   3.483   1.820
 1226SOL    HW2 3760   2.107   3.329   1.770
 1227SOL     OW 3761   2.533   2.326   1.269
 1227SOL    HW1 3762   2.499   2.237   1.239
 1227SOL    HW2 3763   2.559   2.380   1.189
 1228SOL     OW 3764   2.335   2.362   0.191
 1228SOL    HW1 3765   2.396   2.442   0.195
 1228SOL    HW2 3766   2.240   2.393   0.198
 1229SOL     OW 3767   2.021   2.999   1.466
 1229SOL    HW1 3768   2.043   2.938   1.542
 1229SOL    HW2 3769   2.031   2.950   1.380
 1230SOL     OW 3770   3.209   2.921   1.234
 1230SOL    HW1 3771   3.233   2.858   1.160
 1230SOL    HW2 3772   3.119   2.961   1.216
 1231SOL     OW 3773   3.164   2.717   0.309
 1231SOL    HW1 3774   3.078   2.686   0.351
 1231SOL    HW2 3775   3.160   2.703   0.210
 1232SOL     OW 3776   3.114   3.593   1.128
 1232SOL    HW1 3777   3.198   3.598   1.074
 1232SOL    HW2 3778   3.091   3.497   1.146
 1233SOL     OW 3779   1.945   3.120   1.022
 1233SOL    HW1 3780   1.940   3.119   1.122
 1233SOL    HW2 3781   1.862   3.079   0.984
 1234SOL     OW 3782   2.765   1.948   0.133
 1234SOL    HW1 3783   2.816   1.949   0.047
 1234SOL    HW2 3784   2.821   1.906   0.204
 1235SOL     OW 3785   3.250   3.435   0.477
 1235SOL    HW1 3786   3.317   3.447   0.403
 1235SOL    HW2 3787   3.210   3.524   0.500
 1236SOL     OW 3788   1.992   3.656   1.851
 1236SOL    HW1 3789   1.951   3.582   1.904
 1236SOL    HW2 3790   2.056   3.707   1.909
 1237SOL     OW 3791   3.142   2.789   0.672
 1237SOL    HW1 3792   3.202   2.708   0.674
 1237SOL    HW2 3793   3.182   2.858   0.612
 1238SOL     OW 3794   2.692   3.135   1.422
 1238SOL    HW1 3795   2.687   3.168   1.517
 1238SOL    HW2 3796   2.606   3.154   1.376
 1239SOL     OW 3797   2.534   3.478   0.154
 1239SOL    HW1 3798   2.543   3.488   0.055
 1239SOL    HW2 3799   2.494   3.389   0.175
 1240SOL     OW 3800   2.125   2.188   0.720
 1240SOL    HW1 3801   2.046   2.239   0.686
 1240SOL    HW2 3802   2.116   2.173   0.818
 1241SOL     OW 3803   3.056   3.474   0.031
 1241SOL    HW1 3804   3.062   3.381   0.068
 1241SOL    HW2 3805   2.997   3.474  -0.049
 1242SOL     OW 3806   2.684   2.864   1.372
 1242SOL    HW1 3807   2.724   2.863   1.280
 1242SOL    HW2 3808   2.694   2.956   1.412
 1243SOL     OW 3809   2.778   2.772   0.291
 1243SOL    HW1 3810   2.841   2.810   0.223
 1243SOL    HW2 3811   2.818   2.689   0.330
 1244SOL     OW 3812   2.234   3.150   1.490
 1244SOL    HW1 3813   2.221   3.243   1.456
 1244SOL    HW2 3814   2.150   3.098   1.477
 1245SOL     OW 3815   2.901   2.960   0.696
 1245SOL    HW1 3816   2.831   2.913   0.750
 1245SOL    HW2 3817   2.960   2.892   0.653
 1246SOL     OW 3818   2.876   2.098   0.971
 1246SOL    HW1 3819   2.868   2.062   0.878
 1246SOL    HW2 3820   2.874   2.022   1.036
 1247SOL     OW 3821   2.452   3.349   0.491
 1247SOL    HW1 3822   2.494   3.291   0.421
 1247SOL    HW2 3823   2.408   3.428   0.447
 1248SOL     OW 3824   2.117   3.210   0.290
 1248SOL    HW1 3825   2.021   3.211   0.263
 1248SOL    HW2 3826   2.129   3.263   0.374
 1249SOL     OW 3827   1.967   2.875   1.726
 1249SOL    HW1 3828   1.890   2.842   1.780
 1249SOL    HW2 3829   2.052   2.845   1.768
 1250SOL     OW 3830   2.534   2.065   1.489
 1250SOL    HW1 3831   2.624   2.049   1.449
 1250SOL    HW2 3832   2.542   2.070   1.588
 1251SOL     OW 3833   1.937   2.207   0.033
 1251SOL    HW1 3834   1.845   2.179   0.004
 1251SOL    HW2 3835   1.968   2.284  -0.023
 1252SOL     OW 3836   3.302   2.718   1.398
 1252SOL    HW1 3837   3.245   2.770   1.335
 1252SOL    HW2 3838   3.398   2.730   1.374
 1253SOL     OW 3839   1.934   2.028   0.318
 1253SOL    HW1 3840   1.917   2.111   0.264
 1253SOL    HW2 3841   2.024   1.991   0.296
 1254SOL     OW 3842   3.045   3.197   0.119
 1254SOL    HW1 3843   2.946   3.186   0.121
 1254SOL    HW2 3844   3.079   3.212   0.212
 1255SOL     OW 3845   2.475   2.704   1.431
 1255SOL    HW1 3846   2.531   2.785   1.414
 1255SOL    HW2 3847   2.534   2.624   1.434
 1256SOL     OW 3848   2.578   2.427   1.708
 1256SOL    HW1 3849   2.597   2.492   1.782
 1256SOL    HW2 3850   2.638   2.347   1.717
 1257SOL     OW 3851   3.312   3.082   1.633
 1257SOL    HW1 3852   3.303   3.072   1.732
 1257SOL    HW2 3853   3.408   3.075   1.607
 1258SOL     OW 3854   3.536   2.745   1.254
 1258SOL    HW1 3855   3.509   2.656   1.217
 1258SOL    HW2 3856   3.537   2.813   1.181
 1259SOL     OW 3857   3.087   2.187   0.449
 1259SOL    HW1 3858   3.152   2.113   0.438
 1259SOL    HW2 3859   3.107   2.237   0.533
 1260SOL     OW 3860   2.456   2.607   0.652
 1260SOL    HW1 3861   2.506   2.692   0.633
 1260SOL    HW2 3862   2.368   2.609   0.604
 1261SOL     OW 3863   2.721   3.236   0.016
 1261SOL    HW1 3864   2.675   3.251   0.104
 1261SOL    HW2 3865   2.765   3.321  -0.014
 1262SOL     OW 3866   2.721   2.818   0.861
 1262SOL    HW1 3867   2.775   2.749   0.909
 1262SOL    HW2 3868   2.689   2.887   0.927
 1263SOL     OW 3869   2.945   2.846   0.087
 1263SOL    HW1 3870   2.922   2.899   0.005
 1263SOL    HW2 3871   3.026   2.790   0.068
 1264SOL     OW 3872   3.723   3.431   0.851
 1264SOL    HW1 3873   3.652   3.419   0.781
 1264SOL    HW2 3874   3.724   3.352   0.911
 1265SOL     OW 3875   2.083   3.176   1.844
 1265SOL    HW1 3876   2.018   3.103   1.823
 1265SOL    HW2 3877   2.087   3.190   1.942
 1266SOL     OW 3878   1.941   3.102   0.653
 1266SOL    HW1 3879   1.940   3.055   0.741
 1266SOL    HW2 3880   2.023   3.074   0.602
 1267SOL     OW 3881   2.534   3.253   1.624
 1267SOL    HW1 3882   2.456   3.203   1.662
 1267SOL    HW2 3883   2.531   3.348   1.655
 1268SOL     OW 3884   3.686   2.054   1.227
 1268SOL    HW1 3885   3.682   1.964   1.271
 1268SOL    HW2 3886   3.689   2.043   1.128
 1269SOL     OW 3887   2.290   2.286   0.520
 1269SOL    HW1 3888   2.320   2.214   0.458
 1269SOL    HW2 3889   2.251   2.246   0.603
 1270SOL     OW 3890   2.179   2.409   1.280
 1270SOL    HW1 3891   2.217   2.350   1.352
 1270SOL    HW2 3892   2.219   2.383   1.192
 1271SOL     OW 3893   2.674   3.448   0.687
 1271SOL    HW1 3894   2.706   3.458   0.593
 1271SOL    HW2 3895   2.595   3.386   0.689
 1272SOL     OW 3896   3.286   2.076   1.112
 1272SOL    HW1 3897   3.338   2.011   1.167
 1272SOL    HW2 3898   3.237   2.139   1.173
 1273SOL     OW 3899   2.863   1.896   1.154
 1273SOL    HW1 3900   2.800   1.824   1.123
 1273SOL    HW2 3901   2.956   1.860   1.154
 1274SOL     OW 3902   2.632   3.192   0.301
 1274SOL    HW1 3903   2.586   3.105   0.318
 1274SOL    HW2 3904   2.723   3.189   0.342
 1275SOL     OW 3905   2.480   3.429   1.284
 1275SOL    HW1 3906   2.475   3.511   1.341
 1275SOL    HW2 3907   2.569   3.426   1.239
 1276SOL     OW 3908   3.214   1.914   0.168
 1276SOL    HW1 3909   3.249   1.873   0.084
 1276SOL    HW2 3910   3.124   1.876   0.188
 1277SOL     OW 3911   3.162   2.315   0.691
 1277SOL    HW1 3912   3.103   2.395   0.695
 1277SOL    HW2 3913   3.177   2.280   0.784
 1278SOL     OW 3914   3.455   2.083   0.882
 1278SOL    HW1 3915   3.371   2.082   0.936
 1278SOL    HW2 3916   3.457   2.166   0.826
 1279SOL     OW 3917   1.901   2.939   0.300
 1279SOL    HW1 3918   2.000   2.928   0.291
 1279SOL    HW2 3919   1.861   2.853   0.332
 1280SOL     OW 3920   2.092   2.490   1.975
 1280SOL    HW1 3921   1.999   2.488   2.012
 1280SOL    HW2 3922   2.093   2.451   1.883
 1281SOL     OW 3923   2.087   2.137   2.858
 1281SOL    HW1 3924   2.122   2.120   2.950
 1281SOL    HW2 3925   1.999   2.092   2.846
 1282SOL     OW 3926   1.881   2.230   2.509
 1282SOL    HW1 3927   1.799   2.273   2.548
 1282SOL    HW2 3928   1.853   2.157   2.446
 1283SOL     OW 3929   2.431   3.137   3.027
 1283SOL    HW1 3930   2.338   3.130   2.990
 1283SOL    HW2 3931   2.442   3.226   3.071
 1284SOL     OW 3932   3.417   3.373   2.565
 1284SOL    HW1 3933   3.360   3.357   2.646
 1284SOL    HW2 3934   3.358   3.383   2.485
 1285SOL     OW 3935   2.997   2.565   2.579
 1285SOL    HW1 3936   3.054   2.643   2.554
 1285SOL    HW2 3937   2.937   2.591   2.655
 1286SOL     OW 3938   2.630   3.006   2.885
 1286SOL    HW1 3939   2.552   3.023   2.945
 1286SOL    HW2 3940   2.664   3.093   2.849
 1287SOL     OW 3941   2.547   2.874   2.527
 1287SOL    HW1 3942   2.616   2.858   2.597
 1287SOL    HW2 3943   2.474   2.931   2.565
 1288SOL     OW 3944   2.197   3.297   2.923
 1288SOL    HW1 3945   2.119   3.266   2.870
 1288SOL    HW2 3946   2.255   3.355   2.866
 1289SOL     OW 3947   3.322   3.367   3.201
 1289SOL    HW1 3948   3.346   3.461   3.227
 1289SOL    HW2 3949   3.306   3.313   3.283
 1290SOL     OW 3950   2.300   2.254   3.361
 1290SOL    HW1 3951   2.382   2.198   3.370
 1290SOL    HW2 3952   2.219   2.196   3.365
 1291SOL     OW 3953   2.092   3.296   2.400
 1291SOL    HW1 3954   2.066   3.392   2.400
 1291SOL    HW2 3955   2.021   3.242   2.445
 1292SOL     OW 3956   2.102   2.953   2.748
 1292SOL    HW1 3957   2.116   2.869   2.800
 1292SOL    HW2 3958   2.047   3.017   2.803
 1293SOL     OW 3959   2.468   2.826   1.985
 1293SOL    HW1 3960   2.475   2.910   1.931
 1293SOL    HW2 3961   2.514   2.839   2.073
 1294SOL     OW 3962   3.456   1.976   3.342
 1294SOL    HW1 3963   3.438   2.043   3.270
 1294SOL    HW2 3964   3.453   2.022   3.431
 1295SOL     OW 3965   1.984   2.505   2.425
 1295SOL    HW1 3966   1.939   2.417   2.442
 1295SOL    HW2 3967   1.983   2.559   2.509
 1296SOL     OW 3968   1.889   3.458   1.979
 1296SOL    HW1 3969   1.870   3.362   2.000
 1296SOL    HW2 3970   1.856   3.516   2.054
 1297SOL     OW 3971   3.551   2.784   2.474
 1297SOL    HW1 3972   3.646   2.755   2.482
 1297SOL    HW2 3973   3.543   2.849   2.399
 1298SOL     OW 3974   1.975   2.599   3.459
 1298SOL    HW1 3975   2.063   2.586   3.504
 1298SOL    HW2 3976   1.962   2.696   3.437
 1299SOL     OW 3977   2.475   3.227   2.588
 1299SOL    HW1 3978   2.426   3.140   2.597
 1299SOL    HW2 3979   2.452   3.270   2.501
 1300SOL     OW 3980   3.155   3.090   3.285
 1300SOL    HW1 3981   3.192   3.017   3.227
 1300SOL    HW2 3982   3.207   3.095   3.370
 1301SOL     OW 3983   2.671   1.866   2.364
 1301SOL    HW1 3984   2.711   1.957   2.355
 1301SOL    HW2 3985   2.571   1.874   2.370
 1302SOL     OW 3986   2.059   2.838   3.126
 1302SOL    HW1 3987   2.148   2.793   3.112
 1302SOL    HW2 3988   1.986   2.773   3.107
 1303SOL     OW 3989   3.387   2.861   2.052
 1303SOL    HW1 3990   3.324   2.785   2.065
 1303SOL    HW2 3991   3.435   2.879   2.138
 1304SOL     OW 3992   3.328   3.279   2.815
 1304SOL    HW1 3993   3.269   3.285   2.895
 1304SOL    HW2 3994   3.313   3.191   2.769
 1305SOL     OW 3995   3.529   3.576   2.434
 1305SOL    HW1 3996   3.488   3.553   2.346
 1305SOL    HW2 3997   3.511   3.502   2.499
 1306SOL     OW 3998   2.460   2.591   2.132
 1306SOL    HW1 3999   2.484   2.660   2.064
 1306SOL    HW2 4000   2.382   2.624   2.186
 1307SOL     OW 4001   3.143   2.207   2.806
 1307SOL    HW1 4002   3.057   2.157   2.793
 1307SOL    HW2 4003   3.205   2.153   2.862
 1308SOL     OW 4004   3.438   3.524   2.169
 1308SOL    HW1 4005   3.527   3.570   2.172
 1308SOL    HW2 4006   3.417   3.500   2.074
 1309SOL     OW 4007   2.669   2.467   3.327
 1309SOL    HW1 4008   2.622   2.464   3.416
 1309SOL    HW2 4009   2.618   2.412   3.261
 1310SOL     OW 4010   2.835   2.752   3.434
 1310SOL    HW1 4011   2.881   2.668   3.405
 1310SOL    HW2 4012   2.779   2.786   3.359
 1311SOL     OW 4013   2.853   2.272   3.104
 1311SOL    HW1 4014   2.776   2.306   3.158
 1311SOL    HW2 4015   2.819   2.221   3.025
 1312SOL     OW 4016   2.903   2.563   2.291
 1312SOL    HW1 4017   2.929   2.559   2.387
 1312SOL    HW2 4018   2.818   2.512   2.277
 1313SOL     OW 4019   1.938   2.673   2.651
 1313SOL    HW1 4020   2.037   2.661   2.660
 1313SOL    HW2 4021   1.914   2.768   2.672
 1314SOL     OW 4022   2.727   2.210   2.057
 1314SOL    HW1 4023   2.786   2.273   2.008
 1314SOL    HW2 4024   2.746   2.116   2.028
 1315SOL     OW 4025   3.224   3.006   2.407
 1315SOL    HW1 4026   3.307   2.977   2.359
 1315SOL    HW2 4027   3.175   3.073   2.351
 1316SOL     OW 4028   2.412   2.058   2.747
 1316SOL    HW1 4029   2.407   2.053   2.847
 1316SOL    HW2 4030   2.414   2.154   2.718
 1317SOL     OW 4031   2.870   3.318   2.339
 1317SOL    HW1 4032   2.824   3.390   2.287
 1317SOL    HW2 4033   2.866   3.338   2.437
 1318SOL     OW 4034   3.089   3.412   3.368
 1318SOL    HW1 4035   3.095   3.335   3.432
 1318SOL    HW2 4036   3.037   3.386   3.288
 1319SOL     OW 4037   2.183   2.805   2.104
 1319SOL    HW1 4038   2.265   2.844   2.062
 1319SOL    HW2 4039   2.156   2.723   2.055
 1320SOL     OW 4040   3.320   2.597   2.590
 1320SOL    HW1 4041   3.315   2.532   2.665
 1320SOL    HW2 4042   3.400   2.656   2.603
 1321SOL     OW 4043   2.323   3.128   3.589
 1321SOL    HW1 4044   2.273   3.129   3.503
 1321SOL    HW2 4045   2.260   3.110   3.665
 1322SOL     OW 4046   2.064   2.147   3.360
 1322SOL    HW1 4047   1.984   2.207   3.347
 1322SOL    HW2 4048   2.054   2.098   3.446
 1323SOL     OW 4049   3.262   1.969   2.288
 1323SOL    HW1 4050   3.238   1.932   2.198
 1323SOL    HW2 4051   3.361   1.985   2.292
 1324SOL     OW 4052   2.244   2.562   2.342
 1324SOL    HW1 4053   2.289   2.472   2.339
 1324SOL    HW2 4054   2.150   2.551   2.375
 1325SOL     OW 4055   2.476   1.984   1.979
 1325SOL    HW1 4056   2.574   1.962   1.986
 1325SOL    HW2 4057   2.445   1.967   1.886
 1326SOL     OW 4058   2.750   3.376   3.057
 1326SOL    HW1 4059   2.727   3.351   2.963
 1326SOL    HW2 4060   2.811   3.307   3.096
 1327SOL     OW 4061   3.213   2.452   3.295
 1327SOL    HW1 4062   3.241   2.409   3.380
 1327SOL    HW2 4063   3.238   2.548   3.296
 1328SOL     OW 4064   2.665   3.264   2.786
 1328SOL    HW1 4065   2.755   3.278   2.744
 1328SOL    HW2 4066   2.594   3.266   2.715
 1329SOL     OW 4067   2.784   2.365   2.761
 1329SOL    HW1 4068   2.759   2.356   2.665
 1329SOL    HW2 4069   2.832   2.283   2.792
 1330SOL     OW 4070   2.401   1.926   2.374
 1330SOL    HW1 4071   2.320   1.927   2.432
 1330SOL    HW2 4072   2.404   2.009   2.319
 1331SOL     OW 4073   3.296   3.050   1.903
 1331SOL    HW1 4074   3.328   2.974   1.960
 1331SOL    HW2 4075   3.204   3.077   1.933
 1332SOL     OW 4076   2.797   2.098   2.342
 1332SOL    HW1 4077   2.749   2.139   2.264
 1332SOL    HW2 4078   2.896   2.096   2.323
 1333SOL     OW 4079   2.938   2.545   3.326
 1333SOL    HW1 4080   2.858   2.484   3.329
 1333SOL    HW2 4081   3.019   2.492   3.302
 1334SOL     OW 4082   3.089   3.432   2.655
 1334SOL    HW1 4083   3.110   3.506   2.590
 1334SOL    HW2 4084   3.157   3.432   2.728
 1335SOL     OW 4085   2.321   3.014   2.603
 1335SOL    HW1 4086   2.250   2.987   2.668
 1335SOL    HW2 4087   2.295   2.986   2.510
 1336SOL     OW 4088   2.894   2.411   1.878
 1336SOL    HW1 4089   2.853   2.493   1.839
 1336SOL    HW2 4090   2.958   2.437   1.951
 1337SOL     OW 4091   1.940   2.418   3.248
 1337SOL    HW1 4092   2.032   2.417   3.207
 1337SOL    HW2 4093   1.934   2.492   3.315
 1338SOL     OW 4094   2.423   2.084   3.009
 1338SOL    HW1 4095   2.461   2.000   3.046
 1338SOL    HW2 4096   2.335   2.103   3.053
 1339SOL     OW 4097   2.728   2.316   2.504
 1339SOL    HW1 4098   2.696   2.388   2.442
 1339SOL    HW2 4099   2.752   2.235   2.451
 1340SOL     OW 4100   2.879   1.901   2.615
 1340SOL    HW1 4101   2.807   1.906   2.546
 1340SOL    HW2 4102   2.855   1.832   2.684
 1341SOL     OW 4103   3.291   3.035   2.729
 1341SOL    HW1 4104   3.236   2.951   2.722
 1341SOL    HW2 4105   3.317   3.064   2.637
 1342SOL     OW 4106   3.328   2.452   2.854
 1342SOL    HW1 4107   3.298   2.357   2.861
 1342SOL    HW2 4108   3.401   2.468   2.920
 1343SOL     OW 4109   3.719   2.695   2.239
 1343SOL    HW1 4110   3.761   2.631   2.303
 1343SOL    HW2 4111   3.681   2.644   2.161
 1344SOL     OW 4112   2.350   3.247   2.036
 1344SOL    HW1 4113   2.263   3.232   2.083
 1344SOL    HW2 4114   2.333   3.273   1.941
 1345SOL     OW 4115   3.252   2.437   1.940
 1345SOL    HW1 4116   3.198   2.416   2.021
 1345SOL    HW2 4117   3.343   2.396   1.949
 1346SOL     OW 4118   2.389   2.118   2.190
 1346SOL    HW1 4119   2.416   2.059   2.115
 1346SOL    HW2 4120   2.389   2.213   2.159
 1347SOL     OW 4121   2.926   3.209   3.202
 1347SOL    HW1 4122   2.846   3.186   3.257
 1347SOL    HW2 4123   3.009   3.183   3.251
 1348SOL     OW 4124   3.454   3.491   3.487
 1348SOL    HW1 4125   3.481   3.525   3.397
 1348SOL    HW2 4126   3.533   3.453   3.533
 1349SOL     OW 4127   2.973   3.057   2.962
 1349SOL    HW1 4128   2.933   3.101   3.043
 1349SOL    HW2 4129   2.932   3.094   2.879
 1350SOL     OW 4130   3.500   2.961   2.941
 1350SOL    HW1 4131   3.505   3.042   3.000
 1350SOL    HW2 4132   3.414   2.963   2.890
 1351SOL     OW 4133   2.777   1.951   3.264
 1351SOL    HW1 4134   2.802   1.931   3.169
 1351SOL    HW2 4135   2.849   2.007   3.306
 1352SOL     OW 4136   2.567   2.912   2.230
 1352SOL    HW1 4137   2.553   2.919   2.329
 1352SOL    HW2 4138   2.651   2.861   2.212
 1353SOL     OW 4139   2.272   2.675   3.113
 1353SOL    HW1 4140   2.358   2.687   3.163
 1353SOL    HW2 4141   2.230   2.588   3.140
 1354SOL     OW 4142   3.136   2.248   3.124
 1354SOL    HW1 4143   3.157   2.322   3.188
 1354SOL    HW2 4144   3.047   2.265   3.081
 1355SOL     OW 4145   1.926   3.426   3.193
 1355SOL    HW1 4146   1.880   3.508   3.159
 1355SOL    HW2 4147   2.024   3.445   3.202
 1356SOL     OW 4148   2.229   2.962   2.363
 1356SOL    HW1 4149   2.222   3.045   2.307
 1356SOL    HW2 4150   2.233   2.882   2.303
 1357SOL     OW 4151   2.428   2.399   2.727
 1357SOL    HW1 4152   2.440   2.465   2.653
 1357SOL    HW2 4153   2.474   2.433   2.810
 1358SOL     OW 4154   3.114   3.210   2.250
 1358SOL    HW1 4155   3.164   3.287   2.290
 1358SOL    HW2 4156   3.019   3.212   2.282
 1359SOL     OW 4157   3.134   3.307   3.004
 1359SOL    HW1 4158   3.181   3.320   3.091
 1359SOL    HW2 4159   3.068   3.233   3.013
 1360SOL     OW 4160   3.444   2.501   2.334
 1360SOL    HW1 4161   3.413   2.562   2.407
 1360SOL    HW2 4162   3.494   2.553   2.265
 1361SOL     OW 4163   2.216   3.372   3.191
 1361SOL    HW1 4164   2.195   3.328   3.104
 1361SOL    HW2 4165   2.313   3.398   3.194
 1362SOL     OW 4166   2.264   2.613   3.460
 1362SOL    HW1 4167   2.332   2.668   3.413
 1362SOL    HW2 4168   2.304   2.525   3.487
 1363SOL     OW 4169   3.449   2.641   3.532
 1363SOL    HW1 4170   3.357   2.679   3.527
 1363SOL    HW2 4171   3.509   2.688   3.467
 1364SOL     OW 4172   2.435   2.732   2.891
 1364SOL    HW1 4173   2.479   2.821   2.882
 1364SOL    HW2 4174   2.372   2.732   2.968
 1365SOL     OW 4175   3.222   2.724   2.907
 1365SOL    HW1 4176   3.147   2.724   2.841
 1365SOL    HW2 4177   3.259   2.632   2.916
 1366SOL     OW 4178   3.071   2.387   2.137
 1366SOL    HW1 4179   3.084   2.303   2.191
 1366SOL    HW2 4180   3.042   2.461   2.197
 1367SOL     OW 4181   2.169   2.075   3.093
 1367SOL    HW1 4182   2.146   2.112   3.183
 1367SOL    HW2 4183   2.139   1.980   3.087
 1368SOL     OW 4184   1.899   3.172   3.144
 1368SOL    HW1 4185   1.952   3.123   3.212
 1368SOL    HW2 4186   1.921   3.270   3.149
 1369SOL     OW 4187   2.594   2.496   2.926
 1369SOL    HW1 4188   2.653   2.470   2.850
 1369SOL    HW2 4189   2.566   2.592   2.915
 1370SOL     OW 4190   2.169   1.925   2.480
 1370SOL    HW1 4191   2.158   2.019   2.513
 1370SOL    HW2 4192   2.164   1.862   2.557
 1371SOL     OW 4193   3.484   2.229   2.236
 1371SOL    HW1 4194   3.486   2.153   2.300
 1371SOL    HW2 4195   3.436   2.306   2.276
 1372SOL     OW 4196   2.885   2.628   2.828
 1372SOL    HW1 4197   2.900   2.649   2.924
 1372SOL    HW2 4198   2.855   2.533   2.819
 1373SOL     OW 4199   3.402   2.136   1.987
 1373SOL    HW1 4200   3.341   2.061   2.010
 1373SOL    HW2 4201   3.424   2.188   2.070
 1374SOL     OW 4202   3.165   2.700   1.904
 1374SOL    HW1 4203   3.199   2.607   1.919
 1374SOL    HW2 4204   3.183   2.727   1.809
 1375SOL     OW 4205   2.930   3.195   2.711
 1375SOL    HW1 4206   2.937   3.111   2.656
 1375SOL    HW2 4207   2.992   3.264   2.675
 1376SOL     OW 4208   2.181   2.672   2.811
 1376SOL    HW1 4209   2.274   2.708   2.816
 1376SOL    HW2 4210   2.175   2.587   2.863
 1377SOL     OW 4211   2.201   2.371   2.868
 1377SOL    HW1 4212   2.149   2.288   2.851
 1377SOL    HW2 4213   2.278   2.376   2.804
 1378SOL     OW 4214   3.022   2.069   3.339
 1378SOL    HW1 4215   3.022   2.133   3.416
 1378SOL    HW2 4216   3.050   2.117   3.256
 1379SOL     OW 4217   1.870   3.188   2.062
 1379SOL    HW1 4218   1.777   3.209   2.031
 1379SOL    HW2 4219   1.880   3.089   2.075
 1380SOL     OW 4220   2.366   3.430   2.772
 1380SOL    HW1 4221   2.432   3.504   2.781
 1380SOL    HW2 4222   2.410   3.351   2.730
 1381SOL     OW 4223   2.864   2.658   3.100
 1381SOL    HW1 4224   2.905   2.626   3.186
 1381SOL    HW2 4225   2.768   2.631   3.097
 1382SOL     OW 4226   1.902   2.406   2.976
 1382SOL    HW1 4227   1.987   2.373   2.935
 1382SOL    HW2 4228   1.915   2.421   3.074
 1383SOL     OW 4229   2.677   2.434   2.187
 1383SOL    HW1 4230   2.684   2.345   2.141
 1383SOL    HW2 4231   2.583   2.468   2.179
 1384SOL     OW 4232   2.114   3.426   3.606
 1384SOL    HW1 4233   2.084   3.483   3.682
 1384SOL    HW2 4234   2.107   3.329   3.632
 1385SOL     OW 4235   2.533   2.326   3.131
 1385SOL    HW1 4236   2.499   2.237   3.101
 1385SOL    HW2 4237   2.559   2.380   3.051
 1386SOL     OW 4238   2.335   2.362   2.053
 1386SOL    HW1 4239   2.396   2.442   2.057
 1386SOL    HW2 4240   2.240   2.393   2.060
 1387SOL     OW 4241   2.021   2.999   3.328
 1387SOL    HW1 4242   2.043   2.938   3.404
 1387SOL    HW2 4243   2.031   2.950   3.242
 1388SOL     OW 4244   3.209   2.921   3.096
 1388SOL    HW1 4245   3.233   2.858   3.022
 1388SOL    HW2 4246   3.119   2.961   3.078
 1389SOL     OW 4247   3.164   2.717   2.171
 1389SOL    HW1 4248   3.078   2.686   2.213
 1389SOL    HW2 4249   3.160   2.703   2.072
 1390SOL     OW 4250   3.114   3.593   2.990
 1390SOL    HW1 4251   3.198   3.598   2.936
 1390SOL    HW2 4252   3.091   3.497   3.008
 1391SOL     OW 4253   1.945   3.120   2.884
 1391SOL    HW1 4254   1.940   3.119   2.984
 1391SOL    HW2 4255   1.862   3.079   2.846
 1392SOL     OW 4256   3.250   3.435   2.339
 1392SOL    HW1 4257   3.317   3.447   2.265
 1392SOL    HW2 4258   3.210   3.524   2.362
 1393SOL     OW 4259   3.142   2.789   2.534
 1393SOL    HW1 4260   3.202   2.708   2.536
 1393SOL    HW2 4261   3.182   2.858   2.474
 1394SOL     OW 4262   2.692   3.135   3.284
 1394SOL    HW1 4263   2.687   3.168   3.379
 1394SOL    HW2 4264   2.606   3.154   3.238
 1395SOL     OW 4265   2.534   3.478   2.016
 1395SOL    HW1 4266   2.543   3.488   1.917
 1395SOL    HW2 4267   2.494   3.389   2.037
 1396SOL     OW 4268   2.125   2.188   2.582
 1396SOL    HW1 4269   2.046   2.239   2.548
 1396SOL    HW2 4270   2.116   2.173   2.680
 1397SOL     OW 4271   3.056   3.474   1.893
 1397SOL    HW1 4272   3.062   3.381   1.930
 1397SOL    HW2 4273   2.997   3.474   1.813
 1398SOL     OW 4274   2.684   2.864   3.234
 1398SOL    HW1 4275   2.724   2.863   3.142
 1398SOL    HW2 4276   2.694   2.956   3.274
 1399SOL     OW 4277   2.778   2.772   2.153
 1399SOL    HW1 4278   2.841   2.810   2.085
 1399SOL    HW2 4279   2.818   2.689   2.192
 1400SOL     OW 4280   2.234   3.150   3.352
 1400SOL    HW1 4281   2.221   3.243   3.318
 1400SOL    HW2 4282   2.150   3.098   3.339
 1401SOL     OW 4283   2.901   2.960   2.558
 1401SOL    HW1 4284   2.831   2.913   2.612
 1401SOL    HW2 4285   2.960   2.892   2.515
 1402SOL     OW 4286   2.876   2.098   2.833
 1402SOL    HW1 4287   2.868   2.062   2.740
 1402SOL    HW2 4288   2.874   2.022   2.898
 1403SOL     OW 4289   2.452   3.349   2.353
 1403SOL    HW1 4290   2.494   3.291   2.283
 1403SOL    HW2 4291   2.408   3.428   2.309
 1404SOL     OW 4292   2.117   3.210   2.152
 1404SOL    HW1 4293   2.021   3.211   2.125
 1404SOL    HW2 4294   2.129   3.263   2.236
 1405SOL     OW 4295   1.967   2.875   3.588
 1405SOL    HW1 4296   1.890   2.842   3.642
 1405SOL    HW2 4297   2.052   2.845   3.630
 1406SOL     OW 4298   2.534   2.065   3.351
 1406SOL    HW1 4299   2.624   2.049   3.311
 1406SOL    HW2 4300   2.542   2.070   3.450
 1407SOL     OW 4301   1.937   2.207   1.895
 1407SOL    HW1 4302   1.845   2.179   1.866
 1407SOL    HW2 4303   1.968   2.284   1.839
 1408SOL     OW 4304   3.302   2.718   3.260
 1408SOL    HW1 4305   3.245   2.770   3.197
 1408SOL    HW2 4306   3.398   2.730   3.236
 1409SOL     OW 4307   3.045   3.197   1.981
 1409SOL    HW1 4308   2.946   3.186   1.983
 1409SOL    HW2 4309   3.079   3.212   2.074
 1410SOL     OW 4310   2.475   2.704   3.293
 1410SOL    HW1 4311   2.531   2.785   3.276
 1410SOL    HW2 4312   2.534   2.624   3.296
 1411SOL     OW 4313   2.578   2.427   3.570
 1411SOL    HW1 4314   2.597   2.492   3.644
 1411SOL    HW2 4315   2.638   2.347   3.579
 1412SOL     OW 4316   2.252   3.603   3.422
 1412SOL    HW1 4317   2.161   3.644   3.420
 1412SOL    HW2 4318   2.245   3.509   3.454
 1413SOL     OW 4319   3.536   2.745   3.116
 1413SOL    HW1 4320   3.509   2.656   3.079
 1413SOL    HW2 4321   3.537   2.813   3.043
 1414SOL     OW 4322   3.087   2.187   2.311
 1414SOL    HW1 4323   3.152   2.113   2.300
 1414SOL    HW2 4324   3.107   2.237   2.395
 1415SOL     OW 4325   2.456   2.607   2.514
 1415SOL    HW1 4326   2.506   2.692   2.495
 1415SOL    HW2 4327   2.368   2.609   2.466
 1416SOL     OW 4328   2.721   3.236   1.878
 1416SOL    HW1 4329   2.675   3.251   1.966
 1416SOL    HW2 4330   2.765   3.321   1.848
 1417SOL     OW 4331   2.721   2.818   2.723
 1417SOL    HW1 4332   2.775   2.749   2.771
 1417SOL    HW2 4333   2.689   2.887   2.789
 1418SOL     OW 4334   2.945   2.846   1.949
 1418SOL    HW1 4335   2.922   2.899   1.867
 1418SOL    HW2 4336   3.026   2.790   1.930
 1419SOL     OW 4337   3.723   3.431   2.713
 1419SOL    HW1 4338   3.652   3.419   2.643
 1419SOL    HW2 4339   3.724   3.352   2.773
 1420SOL     OW 4340   1.941   3.102   2.515
 1420SOL    HW1 4341   1.940   3.055   2.603
 1420SOL    HW2 4342   2.023   3.074   2.464
 1421SOL     OW 4343   2.534   3.253   3.486
 1421SOL    HW1 4344   2.456   3.203   3.524
 1421SOL    HW2 4345   2.531   3.348   3.517
 1422SOL     OW 4346   3.686   2.054   3.089
 1422SOL    HW1 4347   3.682   1.964   3.133
 1422SOL    HW2 4348   3.689   2.043   2.990
 1423SOL     OW 4349   2.290   2.286   2.382
 1423SOL    HW1 4350   2.320   2.214   2.320
 1423SOL    HW2 4351   2.251   2.246   2.465
 1424SOL     OW 4352   2.179   2.409   3.142
 1424SOL    HW1 4353   2.217   2.350   3.214
 1424SOL    HW2 4354   2.219   2.383   3.054
 1425SOL     OW 4355   2.674   3.448   2.549
 1425SOL    HW1 4356   2.706   3.458   2.455
 1425SOL    HW2 4357   2.595   3.386   2.551
 1426SOL     OW 4358   3.286   2.076   2.974
 1426SOL    HW1 4359   3.338   2.011   3.029
 1426SOL    HW2 4360   3.237   2.139   3.035
 1427SOL     OW 4361   2.863   1.896   3.016
 1427SOL    HW1 4362   2.800   1.824   2.985
 1427SOL    HW2 4363   2.956   1.860   3.016
 1428SOL     OW 4364   2.632   3.192   2.163
 1428SOL    HW1 4365   2.586   3.105   2.180
 1428SOL    HW2 4366   2.723   3.189   2.204
 1429SOL     OW 4367   2.480   3.429   3.146
 1429SOL    HW1 4368   2.475   3.511   3.203
 1429SOL    HW2 4369   2.569   3.426   3.101
 1430SOL     OW 4370   3.214   1.914   2.030
 1430SOL    HW1 4371   3.249   1.873   1.946
 1430SOL    HW2 4372   3.124   1.876   2.050
 1431SOL     OW 4373   3.162   2.315   2.553
 1431SOL    HW1 4374   3.103   2.395   2.557
 1431SOL    HW2 4375   3.177   2.280   2.646
 1432SOL     OW 4376   3.455   2.083   2.744
 1432SOL    HW1 4377   3.371   2.082   2.798
 1432SOL    HW2 4378   3.457   2.166   2.688
 1433SOL     OW 4379   1.901   2.939   2.162
 1433SOL    HW1 4380   2.000   2.928   2.153
 1433SOL    HW2 4381   1.861   2.853   2.194
   3.58319   3.58319   3.58319
