; Created by cgenff_charmm2gmx.py

[ moleculetype ]
; Name			   nrexcl
JZ4				 3

[ atoms ]
;	 nr		  type	resnr residue  atom   cgnr	   charge		mass  typeB    chargeB		massB
; residue	 1 JZ4 rtp JZ4 q	qsum
     1     CG2R64      1    JZ4     C1      1      0.689     12.011   ;
     2     CG2RC0      1    JZ4     C2      2      0.590     12.011   ;
     3     CG2RC0      1    JZ4     C3      3     -0.519     12.011   ;
     4     CG2R52      1    JZ4     C4      4      0.171     12.011   ;
     5     CG3C51      1    JZ4     C5      5     -0.174     12.011   ;
     6     CG3C52      1    JZ4     C6      6     -0.184     12.011   ;
     7     CG3C52      1    JZ4     C7      7     -0.181     12.011   ;
     8     CG3C52      1    JZ4     C8      8     -0.181     12.011   ;
     9     CG3C52      1    JZ4     C9      9     -0.184     12.011   ;
    10      CG311      1    JZ4    C10     10      0.123     12.011   ;
    11      CG2O1      1    JZ4    C11     11      0.559     12.011   ;
    12     CG3C41      1    JZ4    C12     12      0.032     12.011   ;
    13     CG3C41      1    JZ4    C13     13     -0.068     12.011   ;
    14     CG3C41      1    JZ4    C14     14      0.032     12.011   ;
    15     CG3C41      1    JZ4    C15     15     -0.214     12.011   ;
    16     CG3C41      1    JZ4    C16     16      0.215     12.011   ;
    17     CG3C41      1    JZ4    C17     17     -0.214     12.011   ;
    18      CG331      1    JZ4    C18     18     -0.267     12.011   ;
    19     NG2R62      1    JZ4    N19     19     -0.670     14.007   ;
    20     NG2R50      1    JZ4    N20     20     -0.590     14.007   ;
    21      OG2D1      1    JZ4    O21     21     -0.514     15.999   ;
    22       FGA1      1    JZ4    F22     22     -0.237     18.998   ;
    23      NG2S0      1    JZ4    N23     23     -0.389     14.007   ;
    24      NG311      1    JZ4    N24     24     -0.501     14.007   ;
    25     NG2R61      1    JZ4    N25     25     -0.416     14.007   ;
    26     NG2R51      1    JZ4    N26     26      0.513     14.007   ;
    27     CG2R63      1    JZ4    C27     27      0.365     12.011   ;
    28      OG2D4      1    JZ4    O28     28     -0.515     15.999   ;
    29      HGR52      1    JZ4    H29     29      0.091      1.008   ;
    30       HGA1      1    JZ4    H30     30      0.090      1.008   ;
    31       HGA2      1    JZ4    H31     31      0.090      1.008   ;
    32       HGA2      1    JZ4    H32     32      0.090      1.008   ;
    33       HGA2      1    JZ4    H33     33      0.090      1.008   ;
    34       HGA2      1    JZ4    H34     34      0.090      1.008   ;
    35       HGA2      1    JZ4    H35     35      0.090      1.008   ;
    36       HGA2      1    JZ4    H36     36      0.090      1.008   ;
    37       HGA2      1    JZ4    H37     37      0.090      1.008   ;
    38       HGA2      1    JZ4    H38     38      0.090      1.008   ;
    39       HGA1      1    JZ4    H39     39      0.090      1.008   ;
    40       HGA2      1    JZ4    H40     40      0.090      1.008   ;
    41       HGA2      1    JZ4    H41     41      0.090      1.008   ;
    42       HGA2      1    JZ4    H42     42      0.090      1.008   ;
    43       HGA2      1    JZ4    H43     43      0.090      1.008   ;
    44       HGA2      1    JZ4    H44     44      0.090      1.008   ;
    45       HGA2      1    JZ4    H45     45      0.090      1.008   ;
    46       HGA6      1    JZ4    H46     46      0.090      1.008   ;
    47       HGA2      1    JZ4    H47     47      0.090      1.008   ;
    48       HGA2      1    JZ4    H48     48      0.090      1.008   ;
    49       HGA3      1    JZ4    H49     49      0.090      1.008   ;
    50       HGA3      1    JZ4    H50     50      0.090      1.008   ;
    51       HGA3      1    JZ4    H51     51      0.090      1.008   ;
    52     HGPAM1      1    JZ4    H52     52      0.370      1.008   ;
    53       HGP1      1    JZ4    H53     53      0.288      1.008   ;

[ bonds ]
;	ai	  aj funct			  c0			c1			  c2			c3
    1    19	 1 ;      CG2R64     NG2R62
    1    25	 1 ;      CG2R64     NG2R61
    1    24	 1 ;      CG2R64      NG311
    2    26	 1 ;      CG2RC0     NG2R51
    2     3	 1 ;      CG2RC0     CG2RC0
    2    19	 1 ;      CG2RC0     NG2R62
    3     4	 1 ;      CG2RC0     CG2R52
    3    27	 1 ;      CG2RC0     CG2R63
    4    29	 1 ;      CG2R52      HGR52
    4    20	 1 ;      CG2R52     NG2R50
    5     6	 1 ;      CG3C51     CG3C52
    5    26	 1 ;      CG3C51     NG2R51
    5     9	 1 ;      CG3C51     CG3C52
    5    30	 1 ;      CG3C51       HGA1
    6    31	 1 ;      CG3C52       HGA2
    6     7	 1 ;      CG3C52     CG3C52
    6    32	 1 ;      CG3C52       HGA2
    7    33	 1 ;      CG3C52       HGA2
    7    34	 1 ;      CG3C52       HGA2
    7     8	 1 ;      CG3C52     CG3C52
    8    35	 1 ;      CG3C52       HGA2
    8    36	 1 ;      CG3C52       HGA2
    8     9	 1 ;      CG3C52     CG3C52
    9    37	 1 ;      CG3C52       HGA2
    9    38	 1 ;      CG3C52       HGA2
   10    24	 1 ;       CG311      NG311
   10    39	 1 ;       CG311       HGA1
   10    18	 1 ;       CG311      CG331
   10    11	 1 ;       CG311      CG2O1
   11    21	 1 ;       CG2O1      OG2D1
   11    23	 1 ;       CG2O1      NG2S0
   12    23	 1 ;      CG3C41      NG2S0
   12    13	 1 ;      CG3C41     CG3C41
   12    40	 1 ;      CG3C41       HGA2
   12    41	 1 ;      CG3C41       HGA2
   13    14	 1 ;      CG3C41     CG3C41
   13    15	 1 ;      CG3C41     CG3C41
   13    17	 1 ;      CG3C41     CG3C41
   14    42	 1 ;      CG3C41       HGA2
   14    43	 1 ;      CG3C41       HGA2
   14    23	 1 ;      CG3C41      NG2S0
   15    44	 1 ;      CG3C41       HGA2
   15    16	 1 ;      CG3C41     CG3C41
   15    45	 1 ;      CG3C41       HGA2
   16    17	 1 ;      CG3C41     CG3C41
   16    22	 1 ;      CG3C41       FGA1
   16    46	 1 ;      CG3C41       HGA6
   17    48	 1 ;      CG3C41       HGA2
   17    47	 1 ;      CG3C41       HGA2
   18    49	 1 ;       CG331       HGA3
   18    51	 1 ;       CG331       HGA3
   18    50	 1 ;       CG331       HGA3
   20    26	 1 ;      NG2R50     NG2R51
   24    52	 1 ;       NG311     HGPAM1
   25    27	 1 ;      NG2R61     CG2R63
   25    53	 1 ;      NG2R61       HGP1
   27    28	 1 ;      CG2R63      OG2D4

[ pairs ]
;	ai	  aj funct			  c0			c1			  c2			c3
    1    26	 1
    1     3	 1
    1    39	 1
    1    18	 1
    1    11	 1
    1    28	 1
    2    25	 1
    2    24	 1
    2    29	 1
    2    28	 1
    2     6	 1
    2     9	 1
    2    30	 1
    3     5	 1
    3    53	 1
    4    19	 1
    4    25	 1
    4    28	 1
    4     5	 1
    5    19	 1
    5    33	 1
    5    34	 1
    5    35	 1
    5    36	 1
    6    20	 1
    6    37	 1
    6    38	 1
    6    35	 1
    6    36	 1
    7    26	 1
    7    30	 1
    7    37	 1
    7    38	 1
    8    26	 1
    8    30	 1
    8    31	 1
    8    32	 1
    9    31	 1
    9    32	 1
    9    20	 1
    9    33	 1
    9    34	 1
   10    19	 1
   10    25	 1
   10    12	 1
   10    14	 1
   11    52	 1
   11    49	 1
   11    51	 1
   11    50	 1
   11    13	 1
   11    40	 1
   11    41	 1
   11    42	 1
   11    43	 1
   12    21	 1
   12    42	 1
   12    43	 1
   12    44	 1
   12    16	 1
   12    45	 1
   12    48	 1
   12    47	 1
   13    22	 1
   13    46	 1
   14    21	 1
   14    40	 1
   14    41	 1
   14    44	 1
   14    16	 1
   14    45	 1
   14    48	 1
   14    47	 1
   15    23	 1
   15    40	 1
   15    41	 1
   15    42	 1
   15    43	 1
   15    48	 1
   15    47	 1
   17    23	 1
   17    40	 1
   17    41	 1
   17    42	 1
   17    43	 1
   17    44	 1
   17    45	 1
   18    52	 1
   18    21	 1
   18    23	 1
   19    27	 1
   19    53	 1
   19    52	 1
   19    20	 1
   20    27	 1
   20    30	 1
   21    24	 1
   21    39	 1
   22    44	 1
   22    45	 1
   22    48	 1
   22    47	 1
   23    24	 1
   23    39	 1
   24    27	 1
   24    53	 1
   24    49	 1
   24    51	 1
   24    50	 1
   25    52	 1
   26    27	 1
   26    29	 1
   26    31	 1
   26    32	 1
   26    37	 1
   26    38	 1
   27    29	 1
   28    53	 1
   30    31	 1
   30    32	 1
   30    37	 1
   30    38	 1
   31    33	 1
   31    34	 1
   32    33	 1
   32    34	 1
   33    35	 1
   33    36	 1
   34    35	 1
   34    36	 1
   35    37	 1
   35    38	 1
   36    37	 1
   36    38	 1
   39    52	 1
   39    49	 1
   39    51	 1
   39    50	 1
   44    46	 1
   45    46	 1
   46    48	 1
   46    47	 1

[ angles ]
;	ai	  aj	ak funct			c0			  c1			c2			  c3
   19     1    25	5 ;     NG2R62     CG2R64     NG2R61
   19     1    24	5 ;     NG2R62     CG2R64      NG311
   25     1    24	5 ;     NG2R61     CG2R64      NG311
   26     2     3	5 ;     NG2R51     CG2RC0     CG2RC0
   26     2    19	5 ;     NG2R51     CG2RC0     NG2R62
    3     2    19	5 ;     CG2RC0     CG2RC0     NG2R62
    2     3     4	5 ;     CG2RC0     CG2RC0     CG2R52
    2     3    27	5 ;     CG2RC0     CG2RC0     CG2R63
    4     3    27	5 ;     CG2R52     CG2RC0     CG2R63
    3     4    29	5 ;     CG2RC0     CG2R52      HGR52
    3     4    20	5 ;     CG2RC0     CG2R52     NG2R50
   29     4    20	5 ;      HGR52     CG2R52     NG2R50
    6     5    26	5 ;     CG3C52     CG3C51     NG2R51
    6     5     9	5 ;     CG3C52     CG3C51     CG3C52
    6     5    30	5 ;     CG3C52     CG3C51       HGA1
   26     5     9	5 ;     NG2R51     CG3C51     CG3C52
   26     5    30	5 ;     NG2R51     CG3C51       HGA1
    9     5    30	5 ;     CG3C52     CG3C51       HGA1
    5     6    31	5 ;     CG3C51     CG3C52       HGA2
    5     6     7	5 ;     CG3C51     CG3C52     CG3C52
    5     6    32	5 ;     CG3C51     CG3C52       HGA2
   31     6     7	5 ;       HGA2     CG3C52     CG3C52
   31     6    32	5 ;       HGA2     CG3C52       HGA2
    7     6    32	5 ;     CG3C52     CG3C52       HGA2
    6     7    33	5 ;     CG3C52     CG3C52       HGA2
    6     7    34	5 ;     CG3C52     CG3C52       HGA2
    6     7     8	5 ;     CG3C52     CG3C52     CG3C52
   33     7    34	5 ;       HGA2     CG3C52       HGA2
   33     7     8	5 ;       HGA2     CG3C52     CG3C52
   34     7     8	5 ;       HGA2     CG3C52     CG3C52
    7     8    35	5 ;     CG3C52     CG3C52       HGA2
    7     8    36	5 ;     CG3C52     CG3C52       HGA2
    7     8     9	5 ;     CG3C52     CG3C52     CG3C52
   35     8    36	5 ;       HGA2     CG3C52       HGA2
   35     8     9	5 ;       HGA2     CG3C52     CG3C52
   36     8     9	5 ;       HGA2     CG3C52     CG3C52
    5     9     8	5 ;     CG3C51     CG3C52     CG3C52
    5     9    37	5 ;     CG3C51     CG3C52       HGA2
    5     9    38	5 ;     CG3C51     CG3C52       HGA2
    8     9    37	5 ;     CG3C52     CG3C52       HGA2
    8     9    38	5 ;     CG3C52     CG3C52       HGA2
   37     9    38	5 ;       HGA2     CG3C52       HGA2
   24    10    39	5 ;      NG311      CG311       HGA1
   24    10    18	5 ;      NG311      CG311      CG331
   24    10    11	5 ;      NG311      CG311      CG2O1
   39    10    18	5 ;       HGA1      CG311      CG331
   39    10    11	5 ;       HGA1      CG311      CG2O1
   18    10    11	5 ;      CG331      CG311      CG2O1
   10    11    21	5 ;      CG311      CG2O1      OG2D1
   10    11    23	5 ;      CG311      CG2O1      NG2S0
   21    11    23	5 ;      OG2D1      CG2O1      NG2S0
   23    12    13	5 ;      NG2S0     CG3C41     CG3C41
   23    12    40	5 ;      NG2S0     CG3C41       HGA2
   23    12    41	5 ;      NG2S0     CG3C41       HGA2
   13    12    40	5 ;     CG3C41     CG3C41       HGA2
   13    12    41	5 ;     CG3C41     CG3C41       HGA2
   40    12    41	5 ;       HGA2     CG3C41       HGA2
   12    13    14	5 ;     CG3C41     CG3C41     CG3C41
   12    13    15	5 ;     CG3C41     CG3C41     CG3C41
   12    13    17	5 ;     CG3C41     CG3C41     CG3C41
   14    13    15	5 ;     CG3C41     CG3C41     CG3C41
   14    13    17	5 ;     CG3C41     CG3C41     CG3C41
   15    13    17	5 ;     CG3C41     CG3C41     CG3C41
   13    14    42	5 ;     CG3C41     CG3C41       HGA2
   13    14    43	5 ;     CG3C41     CG3C41       HGA2
   13    14    23	5 ;     CG3C41     CG3C41      NG2S0
   42    14    43	5 ;       HGA2     CG3C41       HGA2
   42    14    23	5 ;       HGA2     CG3C41      NG2S0
   43    14    23	5 ;       HGA2     CG3C41      NG2S0
   13    15    44	5 ;     CG3C41     CG3C41       HGA2
   13    15    16	5 ;     CG3C41     CG3C41     CG3C41
   13    15    45	5 ;     CG3C41     CG3C41       HGA2
   44    15    16	5 ;       HGA2     CG3C41     CG3C41
   44    15    45	5 ;       HGA2     CG3C41       HGA2
   16    15    45	5 ;     CG3C41     CG3C41       HGA2
   15    16    17	5 ;     CG3C41     CG3C41     CG3C41
   15    16    22	5 ;     CG3C41     CG3C41       FGA1
   15    16    46	5 ;     CG3C41     CG3C41       HGA6
   17    16    22	5 ;     CG3C41     CG3C41       FGA1
   17    16    46	5 ;     CG3C41     CG3C41       HGA6
   22    16    46	5 ;       FGA1     CG3C41       HGA6
   13    17    16	5 ;     CG3C41     CG3C41     CG3C41
   13    17    48	5 ;     CG3C41     CG3C41       HGA2
   13    17    47	5 ;     CG3C41     CG3C41       HGA2
   16    17    48	5 ;     CG3C41     CG3C41       HGA2
   16    17    47	5 ;     CG3C41     CG3C41       HGA2
   48    17    47	5 ;       HGA2     CG3C41       HGA2
   10    18    49	5 ;      CG311      CG331       HGA3
   10    18    51	5 ;      CG311      CG331       HGA3
   10    18    50	5 ;      CG311      CG331       HGA3
   49    18    51	5 ;       HGA3      CG331       HGA3
   49    18    50	5 ;       HGA3      CG331       HGA3
   51    18    50	5 ;       HGA3      CG331       HGA3
    1    19     2	5 ;     CG2R64     NG2R62     CG2RC0
    4    20    26	5 ;     CG2R52     NG2R50     NG2R51
   11    23    12	5 ;      CG2O1      NG2S0     CG3C41
   11    23    14	5 ;      CG2O1      NG2S0     CG3C41
   12    23    14	5 ;     CG3C41      NG2S0     CG3C41
    1    24    10	5 ;     CG2R64      NG311      CG311
    1    24    52	5 ;     CG2R64      NG311     HGPAM1
   10    24    52	5 ;      CG311      NG311     HGPAM1
    1    25    27	5 ;     CG2R64     NG2R61     CG2R63
    1    25    53	5 ;     CG2R64     NG2R61       HGP1
   27    25    53	5 ;     CG2R63     NG2R61       HGP1
    2    26     5	5 ;     CG2RC0     NG2R51     CG3C51
    2    26    20	5 ;     CG2RC0     NG2R51     NG2R50
    5    26    20	5 ;     CG3C51     NG2R51     NG2R50
    3    27    25	5 ;     CG2RC0     CG2R63     NG2R61
    3    27    28	5 ;     CG2RC0     CG2R63      OG2D4
   25    27    28	5 ;     NG2R61     CG2R63      OG2D4

[ dihedrals ]
;	ai	  aj	ak	  al funct			  c0			c1			  c2			c3			  c4			c5
   25     1    19     2	 9 ;     NG2R61     CG2R64     NG2R62     CG2RC0
   24     1    19     2	 9 ;      NG311     CG2R64     NG2R62     CG2RC0
   19     1    25    27	 9 ;     NG2R62     CG2R64     NG2R61     CG2R63
   19     1    25    53	 9 ;     NG2R62     CG2R64     NG2R61       HGP1
   24     1    25    27	 9 ;      NG311     CG2R64     NG2R61     CG2R63
   24     1    25    53	 9 ;      NG311     CG2R64     NG2R61       HGP1
   19     1    24    10	 9 ;     NG2R62     CG2R64      NG311      CG311
   19     1    24    52	 9 ;     NG2R62     CG2R64      NG311     HGPAM1
   25     1    24    10	 9 ;     NG2R61     CG2R64      NG311      CG311
   25     1    24    52	 9 ;     NG2R61     CG2R64      NG311     HGPAM1
    3     2    26     5	 9 ;     CG2RC0     CG2RC0     NG2R51     CG3C51
    3     2    26    20	 9 ;     CG2RC0     CG2RC0     NG2R51     NG2R50
   19     2    26     5	 9 ;     NG2R62     CG2RC0     NG2R51     CG3C51
   19     2    26    20	 9 ;     NG2R62     CG2RC0     NG2R51     NG2R50
   26     2     3     4	 9 ;     NG2R51     CG2RC0     CG2RC0     CG2R52
   26     2     3    27	 9 ;     NG2R51     CG2RC0     CG2RC0     CG2R63
   19     2     3     4	 9 ;     NG2R62     CG2RC0     CG2RC0     CG2R52
   19     2     3    27	 9 ;     NG2R62     CG2RC0     CG2RC0     CG2R63
   26     2    19     1	 9 ;     NG2R51     CG2RC0     NG2R62     CG2R64
    3     2    19     1	 9 ;     CG2RC0     CG2RC0     NG2R62     CG2R64
    2     3     4    29	 9 ;     CG2RC0     CG2RC0     CG2R52      HGR52
    2     3     4    20	 9 ;     CG2RC0     CG2RC0     CG2R52     NG2R50
   27     3     4    29	 9 ;     CG2R63     CG2RC0     CG2R52      HGR52
   27     3     4    20	 9 ;     CG2R63     CG2RC0     CG2R52     NG2R50
    2     3    27    25	 9 ;     CG2RC0     CG2RC0     CG2R63     NG2R61
    2     3    27    28	 9 ;     CG2RC0     CG2RC0     CG2R63      OG2D4
    4     3    27    25	 9 ;     CG2R52     CG2RC0     CG2R63     NG2R61
    4     3    27    28	 9 ;     CG2R52     CG2RC0     CG2R63      OG2D4
    3     4    20    26	 9 ;     CG2RC0     CG2R52     NG2R50     NG2R51
   29     4    20    26	 9 ;      HGR52     CG2R52     NG2R50     NG2R51
   26     5     6    31	 9 ;     NG2R51     CG3C51     CG3C52       HGA2
   26     5     6     7	 9 ;     NG2R51     CG3C51     CG3C52     CG3C52
   26     5     6    32	 9 ;     NG2R51     CG3C51     CG3C52       HGA2
    9     5     6    31	 9 ;     CG3C52     CG3C51     CG3C52       HGA2
    9     5     6     7	 9 ;     CG3C52     CG3C51     CG3C52     CG3C52
    9     5     6    32	 9 ;     CG3C52     CG3C51     CG3C52       HGA2
   30     5     6    31	 9 ;       HGA1     CG3C51     CG3C52       HGA2
   30     5     6     7	 9 ;       HGA1     CG3C51     CG3C52     CG3C52
   30     5     6    32	 9 ;       HGA1     CG3C51     CG3C52       HGA2
    6     5    26     2	 9 ;     CG3C52     CG3C51     NG2R51     CG2RC0
    6     5    26    20	 9 ;     CG3C52     CG3C51     NG2R51     NG2R50
    9     5    26     2	 9 ;     CG3C52     CG3C51     NG2R51     CG2RC0
    9     5    26    20	 9 ;     CG3C52     CG3C51     NG2R51     NG2R50
   30     5    26     2	 9 ;       HGA1     CG3C51     NG2R51     CG2RC0
   30     5    26    20	 9 ;       HGA1     CG3C51     NG2R51     NG2R50
    6     5     9     8	 9 ;     CG3C52     CG3C51     CG3C52     CG3C52
    6     5     9    37	 9 ;     CG3C52     CG3C51     CG3C52       HGA2
    6     5     9    38	 9 ;     CG3C52     CG3C51     CG3C52       HGA2
   26     5     9     8	 9 ;     NG2R51     CG3C51     CG3C52     CG3C52
   26     5     9    37	 9 ;     NG2R51     CG3C51     CG3C52       HGA2
   26     5     9    38	 9 ;     NG2R51     CG3C51     CG3C52       HGA2
   30     5     9     8	 9 ;       HGA1     CG3C51     CG3C52     CG3C52
   30     5     9    37	 9 ;       HGA1     CG3C51     CG3C52       HGA2
   30     5     9    38	 9 ;       HGA1     CG3C51     CG3C52       HGA2
    5     6     7    33	 9 ;     CG3C51     CG3C52     CG3C52       HGA2
    5     6     7    34	 9 ;     CG3C51     CG3C52     CG3C52       HGA2
    5     6     7     8	 9 ;     CG3C51     CG3C52     CG3C52     CG3C52
   31     6     7    33	 9 ;       HGA2     CG3C52     CG3C52       HGA2
   31     6     7    34	 9 ;       HGA2     CG3C52     CG3C52       HGA2
   31     6     7     8	 9 ;       HGA2     CG3C52     CG3C52     CG3C52
   32     6     7    33	 9 ;       HGA2     CG3C52     CG3C52       HGA2
   32     6     7    34	 9 ;       HGA2     CG3C52     CG3C52       HGA2
   32     6     7     8	 9 ;       HGA2     CG3C52     CG3C52     CG3C52
    6     7     8    35	 9 ;     CG3C52     CG3C52     CG3C52       HGA2
    6     7     8    36	 9 ;     CG3C52     CG3C52     CG3C52       HGA2
    6     7     8     9	 9 ;     CG3C52     CG3C52     CG3C52     CG3C52
   33     7     8    35	 9 ;       HGA2     CG3C52     CG3C52       HGA2
   33     7     8    36	 9 ;       HGA2     CG3C52     CG3C52       HGA2
   33     7     8     9	 9 ;       HGA2     CG3C52     CG3C52     CG3C52
   34     7     8    35	 9 ;       HGA2     CG3C52     CG3C52       HGA2
   34     7     8    36	 9 ;       HGA2     CG3C52     CG3C52       HGA2
   34     7     8     9	 9 ;       HGA2     CG3C52     CG3C52     CG3C52
    7     8     9     5	 9 ;     CG3C52     CG3C52     CG3C52     CG3C51
    7     8     9    37	 9 ;     CG3C52     CG3C52     CG3C52       HGA2
    7     8     9    38	 9 ;     CG3C52     CG3C52     CG3C52       HGA2
   35     8     9     5	 9 ;       HGA2     CG3C52     CG3C52     CG3C51
   35     8     9    37	 9 ;       HGA2     CG3C52     CG3C52       HGA2
   35     8     9    38	 9 ;       HGA2     CG3C52     CG3C52       HGA2
   36     8     9     5	 9 ;       HGA2     CG3C52     CG3C52     CG3C51
   36     8     9    37	 9 ;       HGA2     CG3C52     CG3C52       HGA2
   36     8     9    38	 9 ;       HGA2     CG3C52     CG3C52       HGA2
   39    10    24     1	 9 ;       HGA1      CG311      NG311     CG2R64
   39    10    24    52	 9 ;       HGA1      CG311      NG311     HGPAM1
   18    10    24     1	 9 ;      CG331      CG311      NG311     CG2R64
   18    10    24    52	 9 ;      CG331      CG311      NG311     HGPAM1
   11    10    24     1	 9 ;      CG2O1      CG311      NG311     CG2R64
   11    10    24    52	 9 ;      CG2O1      CG311      NG311     HGPAM1
   24    10    18    49	 9 ;      NG311      CG311      CG331       HGA3
   24    10    18    51	 9 ;      NG311      CG311      CG331       HGA3
   24    10    18    50	 9 ;      NG311      CG311      CG331       HGA3
   39    10    18    49	 9 ;       HGA1      CG311      CG331       HGA3
   39    10    18    51	 9 ;       HGA1      CG311      CG331       HGA3
   39    10    18    50	 9 ;       HGA1      CG311      CG331       HGA3
   11    10    18    49	 9 ;      CG2O1      CG311      CG331       HGA3
   11    10    18    51	 9 ;      CG2O1      CG311      CG331       HGA3
   11    10    18    50	 9 ;      CG2O1      CG311      CG331       HGA3
   24    10    11    21	 9 ;      NG311      CG311      CG2O1      OG2D1
   24    10    11    23	 9 ;      NG311      CG311      CG2O1      NG2S0
   39    10    11    21	 9 ;       HGA1      CG311      CG2O1      OG2D1
   39    10    11    23	 9 ;       HGA1      CG311      CG2O1      NG2S0
   18    10    11    21	 9 ;      CG331      CG311      CG2O1      OG2D1
   18    10    11    23	 9 ;      CG331      CG311      CG2O1      NG2S0
   10    11    23    12	 9 ;      CG311      CG2O1      NG2S0     CG3C41
   10    11    23    14	 9 ;      CG311      CG2O1      NG2S0     CG3C41
   21    11    23    12	 9 ;      OG2D1      CG2O1      NG2S0     CG3C41
   21    11    23    14	 9 ;      OG2D1      CG2O1      NG2S0     CG3C41
   13    12    23    11	 9 ;     CG3C41     CG3C41      NG2S0      CG2O1
   13    12    23    14	 9 ;     CG3C41     CG3C41      NG2S0     CG3C41
   40    12    23    11	 9 ;       HGA2     CG3C41      NG2S0      CG2O1
   40    12    23    14	 9 ;       HGA2     CG3C41      NG2S0     CG3C41
   41    12    23    11	 9 ;       HGA2     CG3C41      NG2S0      CG2O1
   41    12    23    14	 9 ;       HGA2     CG3C41      NG2S0     CG3C41
   23    12    13    14	 9 ;      NG2S0     CG3C41     CG3C41     CG3C41
   23    12    13    15	 9 ;      NG2S0     CG3C41     CG3C41     CG3C41
   23    12    13    17	 9 ;      NG2S0     CG3C41     CG3C41     CG3C41
   40    12    13    14	 9 ;       HGA2     CG3C41     CG3C41     CG3C41
   40    12    13    15	 9 ;       HGA2     CG3C41     CG3C41     CG3C41
   40    12    13    17	 9 ;       HGA2     CG3C41     CG3C41     CG3C41
   41    12    13    14	 9 ;       HGA2     CG3C41     CG3C41     CG3C41
   41    12    13    15	 9 ;       HGA2     CG3C41     CG3C41     CG3C41
   41    12    13    17	 9 ;       HGA2     CG3C41     CG3C41     CG3C41
   12    13    14    42	 9 ;     CG3C41     CG3C41     CG3C41       HGA2
   12    13    14    43	 9 ;     CG3C41     CG3C41     CG3C41       HGA2
   12    13    14    23	 9 ;     CG3C41     CG3C41     CG3C41      NG2S0
   15    13    14    42	 9 ;     CG3C41     CG3C41     CG3C41       HGA2
   15    13    14    43	 9 ;     CG3C41     CG3C41     CG3C41       HGA2
   15    13    14    23	 9 ;     CG3C41     CG3C41     CG3C41      NG2S0
   17    13    14    42	 9 ;     CG3C41     CG3C41     CG3C41       HGA2
   17    13    14    43	 9 ;     CG3C41     CG3C41     CG3C41       HGA2
   17    13    14    23	 9 ;     CG3C41     CG3C41     CG3C41      NG2S0
   12    13    15    44	 9 ;     CG3C41     CG3C41     CG3C41       HGA2
   12    13    15    16	 9 ;     CG3C41     CG3C41     CG3C41     CG3C41
   12    13    15    45	 9 ;     CG3C41     CG3C41     CG3C41       HGA2
   14    13    15    44	 9 ;     CG3C41     CG3C41     CG3C41       HGA2
   14    13    15    16	 9 ;     CG3C41     CG3C41     CG3C41     CG3C41
   14    13    15    45	 9 ;     CG3C41     CG3C41     CG3C41       HGA2
   17    13    15    44	 9 ;     CG3C41     CG3C41     CG3C41       HGA2
   17    13    15    16	 9 ;     CG3C41     CG3C41     CG3C41     CG3C41
   17    13    15    45	 9 ;     CG3C41     CG3C41     CG3C41       HGA2
   12    13    17    16	 9 ;     CG3C41     CG3C41     CG3C41     CG3C41
   12    13    17    48	 9 ;     CG3C41     CG3C41     CG3C41       HGA2
   12    13    17    47	 9 ;     CG3C41     CG3C41     CG3C41       HGA2
   14    13    17    16	 9 ;     CG3C41     CG3C41     CG3C41     CG3C41
   14    13    17    48	 9 ;     CG3C41     CG3C41     CG3C41       HGA2
   14    13    17    47	 9 ;     CG3C41     CG3C41     CG3C41       HGA2
   15    13    17    16	 9 ;     CG3C41     CG3C41     CG3C41     CG3C41
   15    13    17    48	 9 ;     CG3C41     CG3C41     CG3C41       HGA2
   15    13    17    47	 9 ;     CG3C41     CG3C41     CG3C41       HGA2
   13    14    23    11	 9 ;     CG3C41     CG3C41      NG2S0      CG2O1
   13    14    23    12	 9 ;     CG3C41     CG3C41      NG2S0     CG3C41
   42    14    23    11	 9 ;       HGA2     CG3C41      NG2S0      CG2O1
   42    14    23    12	 9 ;       HGA2     CG3C41      NG2S0     CG3C41
   43    14    23    11	 9 ;       HGA2     CG3C41      NG2S0      CG2O1
   43    14    23    12	 9 ;       HGA2     CG3C41      NG2S0     CG3C41
   13    15    16    17	 9 ;     CG3C41     CG3C41     CG3C41     CG3C41
   13    15    16    22	 9 ;     CG3C41     CG3C41     CG3C41       FGA1
   13    15    16    46	 9 ;     CG3C41     CG3C41     CG3C41       HGA6
   44    15    16    17	 9 ;       HGA2     CG3C41     CG3C41     CG3C41
   44    15    16    22	 9 ;       HGA2     CG3C41     CG3C41       FGA1
   44    15    16    46	 9 ;       HGA2     CG3C41     CG3C41       HGA6
   45    15    16    17	 9 ;       HGA2     CG3C41     CG3C41     CG3C41
   45    15    16    22	 9 ;       HGA2     CG3C41     CG3C41       FGA1
   45    15    16    46	 9 ;       HGA2     CG3C41     CG3C41       HGA6
   15    16    17    13	 9 ;     CG3C41     CG3C41     CG3C41     CG3C41
   15    16    17    48	 9 ;     CG3C41     CG3C41     CG3C41       HGA2
   15    16    17    47	 9 ;     CG3C41     CG3C41     CG3C41       HGA2
   22    16    17    13	 9 ;       FGA1     CG3C41     CG3C41     CG3C41
   22    16    17    48	 9 ;       FGA1     CG3C41     CG3C41       HGA2
   22    16    17    47	 9 ;       FGA1     CG3C41     CG3C41       HGA2
   46    16    17    13	 9 ;       HGA6     CG3C41     CG3C41     CG3C41
   46    16    17    48	 9 ;       HGA6     CG3C41     CG3C41       HGA2
   46    16    17    47	 9 ;       HGA6     CG3C41     CG3C41       HGA2
    4    20    26     2	 9 ;     CG2R52     NG2R50     NG2R51     CG2RC0
    4    20    26     5	 9 ;     CG2R52     NG2R50     NG2R51     CG3C51
    1    25    27     3	 9 ;     CG2R64     NG2R61     CG2R63     CG2RC0
    1    25    27    28	 9 ;     CG2R64     NG2R61     CG2R63      OG2D4
   53    25    27     3	 9 ;       HGP1     NG2R61     CG2R63     CG2RC0
   53    25    27    28	 9 ;       HGP1     NG2R61     CG2R63      OG2D4

[ dihedrals ]
;	ai	  aj	ak	  al funct			  c0			c1			  c2			c3
    1    25    19    24	 2
   11    10    23    21	 2
   27     3    25    28	 2

