; Created by cgenff_charmm2gmx.py

[ moleculetype ]
; Name			   nrexcl
JZ4				 3

[ atoms ]
;	 nr		  type	resnr residue  atom   cgnr	   charge		mass  typeB    chargeB		massB
; residue	 1 JZ4 rtp JZ4 q	qsum
     1     OG3C61      1    JZ4     O1      1     -0.400     15.999   ;
     2      OG2D4      1    JZ4     O2      2     -0.515     15.999   ;
     3     NG3C51      1    JZ4     N3      3     -0.526     14.007   ;
     4     NG2R51      1    JZ4     N4      4      0.372     14.007   ;
     5     NG2R61      1    JZ4     N5      5     -0.423     14.007   ;
     6     NG2R62      1    JZ4     N6      6     -0.705     14.007   ;
     7     NG2R50      1    JZ4     N7      7     -0.597     14.007   ;
     8     NG2R62      1    JZ4     N8      8     -0.871     14.007   ;
     9     NG2R62      1    JZ4     N9      9     -0.871     14.007   ;
    10     CG3C51      1    JZ4    C10     10      0.172     12.011   ;
    11     CG3C51      1    JZ4    C11     11     -0.161     12.011   ;
    12     CG3C52      1    JZ4    C12     12      0.109     12.011   ;
    13     CG3C52      1    JZ4    C13     13      0.103     12.011   ;
    14     CG2R64      1    JZ4    C14     14      0.390     12.011   ;
    15      CG331      1    JZ4    C15     15     -0.255     12.011   ;
    16      CG321      1    JZ4    C16     16      0.092     12.011   ;
    17      CG311      1    JZ4    C17     17     -0.009     12.011   ;
    18     CG2RC0      1    JZ4    C18     18      0.736     12.011   ;
    19      CG321      1    JZ4    C19     19     -0.212     12.011   ;
    20      CG321      1    JZ4    C20     20     -0.212     12.011   ;
    21     CG2RC0      1    JZ4    C21     21     -0.512     12.011   ;
    22     CG2R63      1    JZ4    C22     22      0.365     12.011   ;
    23     CG2R64      1    JZ4    C23     23      0.434     12.011   ;
    24      CG321      1    JZ4    C24     24      0.035     12.011   ;
    25      CG321      1    JZ4    C25     25      0.035     12.011   ;
    26     CG2R52      1    JZ4    C26     26      0.171     12.011   ;
    27     CG2R61      1    JZ4    C27     27      0.439     12.011   ;
    28     CG2R61      1    JZ4    C28     28      0.439     12.011   ;
    29     CG2R61      1    JZ4    C29     29     -0.131     12.011   ;
    30       HGA1      1    JZ4    H30     30      0.090      1.008   ;
    31       HGA1      1    JZ4    H31     31      0.090      1.008   ;
    32       HGA2      1    JZ4    H32     32      0.090      1.008   ;
    33       HGA2      1    JZ4    H33     33      0.090      1.008   ;
    34       HGA2      1    JZ4    H34     34      0.090      1.008   ;
    35       HGA2      1    JZ4    H35     35      0.090      1.008   ;
    36       HGA3      1    JZ4    H36     36      0.090      1.008   ;
    37       HGA3      1    JZ4    H37     37      0.090      1.008   ;
    38       HGA3      1    JZ4    H38     38      0.090      1.008   ;
    39       HGA2      1    JZ4    H39     39      0.090      1.008   ;
    40       HGA2      1    JZ4    H40     40      0.090      1.008   ;
    41       HGA1      1    JZ4    H41     41      0.090      1.008   ;
    42       HGP1      1    JZ4    H42     42      0.288      1.008   ;
    43       HGA2      1    JZ4    H43     43      0.090      1.008   ;
    44       HGA2      1    JZ4    H44     44      0.090      1.008   ;
    45       HGA2      1    JZ4    H45     45      0.090      1.008   ;
    46       HGA2      1    JZ4    H46     46      0.090      1.008   ;
    47       HGA2      1    JZ4    H47     47      0.090      1.008   ;
    48       HGA2      1    JZ4    H48     48      0.090      1.008   ;
    49       HGA2      1    JZ4    H49     49      0.090      1.008   ;
    50       HGA2      1    JZ4    H50     50      0.090      1.008   ;
    51      HGR52      1    JZ4    H51     51      0.091      1.008   ;
    52      HGR62      1    JZ4    H52     52      0.107      1.008   ;
    53      HGR62      1    JZ4    H53     53      0.107      1.008   ;
    54      HGR61      1    JZ4    H54     54      0.115      1.008   ;

[ bonds ]
;	ai	  aj funct			  c0			c1			  c2			c3
    1    24	 1 ;      OG3C61      CG321
    1    25	 1 ;      OG3C61      CG321
    2    22	 1 ;       OG2D4     CG2R63
    3    12	 1 ;      NG3C51     CG3C52
    3    13	 1 ;      NG3C51     CG3C52
    3    16	 1 ;      NG3C51      CG321
    4    18	 1 ;      NG2R51     CG2RC0
    4    17	 1 ;      NG2R51      CG311
    4     7	 1 ;      NG2R51     NG2R50
    5    42	 1 ;      NG2R61       HGP1
    5    14	 1 ;      NG2R61     CG2R64
    5    22	 1 ;      NG2R61     CG2R63
    6    14	 1 ;      NG2R62     CG2R64
    6    18	 1 ;      NG2R62     CG2RC0
    7    26	 1 ;      NG2R50     CG2R52
    8    27	 1 ;      NG2R62     CG2R61
    8    23	 1 ;      NG2R62     CG2R64
    9    28	 1 ;      NG2R62     CG2R61
    9    23	 1 ;      NG2R62     CG2R64
   10    30	 1 ;      CG3C51       HGA1
   10    12	 1 ;      CG3C51     CG3C52
   10    11	 1 ;      CG3C51     CG3C51
   10    14	 1 ;      CG3C51     CG2R64
   11    15	 1 ;      CG3C51      CG331
   11    13	 1 ;      CG3C51     CG3C52
   11    31	 1 ;      CG3C51       HGA1
   12    32	 1 ;      CG3C52       HGA2
   12    33	 1 ;      CG3C52       HGA2
   13    34	 1 ;      CG3C52       HGA2
   13    35	 1 ;      CG3C52       HGA2
   15    36	 1 ;       CG331       HGA3
   15    37	 1 ;       CG331       HGA3
   15    38	 1 ;       CG331       HGA3
   16    23	 1 ;       CG321     CG2R64
   16    39	 1 ;       CG321       HGA2
   16    40	 1 ;       CG321       HGA2
   17    19	 1 ;       CG311      CG321
   17    41	 1 ;       CG311       HGA1
   17    20	 1 ;       CG311      CG321
   18    21	 1 ;      CG2RC0     CG2RC0
   19    43	 1 ;       CG321       HGA2
   19    44	 1 ;       CG321       HGA2
   19    24	 1 ;       CG321      CG321
   20    46	 1 ;       CG321       HGA2
   20    45	 1 ;       CG321       HGA2
   20    25	 1 ;       CG321      CG321
   21    22	 1 ;      CG2RC0     CG2R63
   21    26	 1 ;      CG2RC0     CG2R52
   24    48	 1 ;       CG321       HGA2
   24    47	 1 ;       CG321       HGA2
   25    49	 1 ;       CG321       HGA2
   25    50	 1 ;       CG321       HGA2
   26    51	 1 ;      CG2R52      HGR52
   27    29	 1 ;      CG2R61     CG2R61
   27    52	 1 ;      CG2R61      HGR62
   28    53	 1 ;      CG2R61      HGR62
   28    29	 1 ;      CG2R61     CG2R61
   29    54	 1 ;      CG2R61      HGR61

[ pairs ]
;	ai	  aj funct			  c0			c1			  c2			c3
    1    17	 1
    1    43	 1
    1    44	 1
    1    46	 1
    1    45	 1
    2    42	 1
    2    14	 1
    2    18	 1
    2    26	 1
    3    30	 1
    3    14	 1
    3    15	 1
    3    31	 1
    3     8	 1
    3     9	 1
    4    14	 1
    4    51	 1
    4    43	 1
    4    44	 1
    4    24	 1
    4    46	 1
    4    45	 1
    4    25	 1
    4    22	 1
    5    18	 1
    5    30	 1
    5    12	 1
    5    11	 1
    5    26	 1
    6    17	 1
    6     7	 1
    6    42	 1
    6    22	 1
    6    30	 1
    6    12	 1
    6    11	 1
    6    26	 1
    7    19	 1
    7    41	 1
    7    20	 1
    7    22	 1
    8    28	 1
    8    39	 1
    8    40	 1
    8    54	 1
    9    27	 1
    9    39	 1
    9    40	 1
    9    54	 1
   10    16	 1
   10    42	 1
   10    22	 1
   10    18	 1
   10    36	 1
   10    37	 1
   10    38	 1
   10    34	 1
   10    35	 1
   11    16	 1
   11    32	 1
   11    33	 1
   12    34	 1
   12    35	 1
   12    23	 1
   12    39	 1
   12    40	 1
   12    15	 1
   12    31	 1
   13    32	 1
   13    33	 1
   13    23	 1
   13    39	 1
   13    40	 1
   13    30	 1
   13    14	 1
   13    36	 1
   13    37	 1
   13    38	 1
   14    21	 1
   14    32	 1
   14    33	 1
   14    15	 1
   14    31	 1
   15    30	 1
   15    34	 1
   15    35	 1
   16    32	 1
   16    33	 1
   16    34	 1
   16    35	 1
   16    27	 1
   16    28	 1
   17    21	 1
   17    26	 1
   17    48	 1
   17    47	 1
   17    49	 1
   17    50	 1
   18    19	 1
   18    41	 1
   18    20	 1
   18    51	 1
   19    25	 1
   19    46	 1
   19    45	 1
   20    24	 1
   20    43	 1
   20    44	 1
   21    42	 1
   22    51	 1
   23    29	 1
   23    52	 1
   23    53	 1
   24    49	 1
   24    50	 1
   24    41	 1
   25    48	 1
   25    47	 1
   25    41	 1
   27    53	 1
   28    52	 1
   30    32	 1
   30    33	 1
   30    31	 1
   31    36	 1
   31    37	 1
   31    38	 1
   31    34	 1
   31    35	 1
   41    43	 1
   41    44	 1
   41    46	 1
   41    45	 1
   43    48	 1
   43    47	 1
   44    48	 1
   44    47	 1
   45    49	 1
   45    50	 1
   46    49	 1
   46    50	 1
   52    54	 1
   53    54	 1

[ angles ]
;	ai	  aj	ak funct			c0			  c1			c2			  c3
   24     1    25	5 ;      CG321     OG3C61      CG321
   12     3    13	5 ;     CG3C52     NG3C51     CG3C52
   12     3    16	5 ;     CG3C52     NG3C51      CG321
   13     3    16	5 ;     CG3C52     NG3C51      CG321
   18     4    17	5 ;     CG2RC0     NG2R51      CG311
   18     4     7	5 ;     CG2RC0     NG2R51     NG2R50
   17     4     7	5 ;      CG311     NG2R51     NG2R50
   42     5    14	5 ;       HGP1     NG2R61     CG2R64
   42     5    22	5 ;       HGP1     NG2R61     CG2R63
   14     5    22	5 ;     CG2R64     NG2R61     CG2R63
   14     6    18	5 ;     CG2R64     NG2R62     CG2RC0
    4     7    26	5 ;     NG2R51     NG2R50     CG2R52
   27     8    23	5 ;     CG2R61     NG2R62     CG2R64
   28     9    23	5 ;     CG2R61     NG2R62     CG2R64
   30    10    12	5 ;       HGA1     CG3C51     CG3C52
   30    10    11	5 ;       HGA1     CG3C51     CG3C51
   30    10    14	5 ;       HGA1     CG3C51     CG2R64
   12    10    11	5 ;     CG3C52     CG3C51     CG3C51
   12    10    14	5 ;     CG3C52     CG3C51     CG2R64
   11    10    14	5 ;     CG3C51     CG3C51     CG2R64
   10    11    15	5 ;     CG3C51     CG3C51      CG331
   10    11    13	5 ;     CG3C51     CG3C51     CG3C52
   10    11    31	5 ;     CG3C51     CG3C51       HGA1
   15    11    13	5 ;      CG331     CG3C51     CG3C52
   15    11    31	5 ;      CG331     CG3C51       HGA1
   13    11    31	5 ;     CG3C52     CG3C51       HGA1
    3    12    10	5 ;     NG3C51     CG3C52     CG3C51
    3    12    32	5 ;     NG3C51     CG3C52       HGA2
    3    12    33	5 ;     NG3C51     CG3C52       HGA2
   10    12    32	5 ;     CG3C51     CG3C52       HGA2
   10    12    33	5 ;     CG3C51     CG3C52       HGA2
   32    12    33	5 ;       HGA2     CG3C52       HGA2
    3    13    11	5 ;     NG3C51     CG3C52     CG3C51
    3    13    34	5 ;     NG3C51     CG3C52       HGA2
    3    13    35	5 ;     NG3C51     CG3C52       HGA2
   11    13    34	5 ;     CG3C51     CG3C52       HGA2
   11    13    35	5 ;     CG3C51     CG3C52       HGA2
   34    13    35	5 ;       HGA2     CG3C52       HGA2
    5    14     6	5 ;     NG2R61     CG2R64     NG2R62
    5    14    10	5 ;     NG2R61     CG2R64     CG3C51
    6    14    10	5 ;     NG2R62     CG2R64     CG3C51
   11    15    36	5 ;     CG3C51      CG331       HGA3
   11    15    37	5 ;     CG3C51      CG331       HGA3
   11    15    38	5 ;     CG3C51      CG331       HGA3
   36    15    37	5 ;       HGA3      CG331       HGA3
   36    15    38	5 ;       HGA3      CG331       HGA3
   37    15    38	5 ;       HGA3      CG331       HGA3
    3    16    23	5 ;     NG3C51      CG321     CG2R64
    3    16    39	5 ;     NG3C51      CG321       HGA2
    3    16    40	5 ;     NG3C51      CG321       HGA2
   23    16    39	5 ;     CG2R64      CG321       HGA2
   23    16    40	5 ;     CG2R64      CG321       HGA2
   39    16    40	5 ;       HGA2      CG321       HGA2
    4    17    19	5 ;     NG2R51      CG311      CG321
    4    17    41	5 ;     NG2R51      CG311       HGA1
    4    17    20	5 ;     NG2R51      CG311      CG321
   19    17    41	5 ;      CG321      CG311       HGA1
   19    17    20	5 ;      CG321      CG311      CG321
   41    17    20	5 ;       HGA1      CG311      CG321
    4    18     6	5 ;     NG2R51     CG2RC0     NG2R62
    4    18    21	5 ;     NG2R51     CG2RC0     CG2RC0
    6    18    21	5 ;     NG2R62     CG2RC0     CG2RC0
   17    19    43	5 ;      CG311      CG321       HGA2
   17    19    44	5 ;      CG311      CG321       HGA2
   17    19    24	5 ;      CG311      CG321      CG321
   43    19    44	5 ;       HGA2      CG321       HGA2
   43    19    24	5 ;       HGA2      CG321      CG321
   44    19    24	5 ;       HGA2      CG321      CG321
   17    20    46	5 ;      CG311      CG321       HGA2
   17    20    45	5 ;      CG311      CG321       HGA2
   17    20    25	5 ;      CG311      CG321      CG321
   46    20    45	5 ;       HGA2      CG321       HGA2
   46    20    25	5 ;       HGA2      CG321      CG321
   45    20    25	5 ;       HGA2      CG321      CG321
   18    21    22	5 ;     CG2RC0     CG2RC0     CG2R63
   18    21    26	5 ;     CG2RC0     CG2RC0     CG2R52
   22    21    26	5 ;     CG2R63     CG2RC0     CG2R52
    2    22     5	5 ;      OG2D4     CG2R63     NG2R61
    2    22    21	5 ;      OG2D4     CG2R63     CG2RC0
    5    22    21	5 ;     NG2R61     CG2R63     CG2RC0
    8    23     9	5 ;     NG2R62     CG2R64     NG2R62
    8    23    16	5 ;     NG2R62     CG2R64      CG321
    9    23    16	5 ;     NG2R62     CG2R64      CG321
    1    24    19	5 ;     OG3C61      CG321      CG321
    1    24    48	5 ;     OG3C61      CG321       HGA2
    1    24    47	5 ;     OG3C61      CG321       HGA2
   19    24    48	5 ;      CG321      CG321       HGA2
   19    24    47	5 ;      CG321      CG321       HGA2
   48    24    47	5 ;       HGA2      CG321       HGA2
    1    25    20	5 ;     OG3C61      CG321      CG321
    1    25    49	5 ;     OG3C61      CG321       HGA2
    1    25    50	5 ;     OG3C61      CG321       HGA2
   20    25    49	5 ;      CG321      CG321       HGA2
   20    25    50	5 ;      CG321      CG321       HGA2
   49    25    50	5 ;       HGA2      CG321       HGA2
    7    26    21	5 ;     NG2R50     CG2R52     CG2RC0
    7    26    51	5 ;     NG2R50     CG2R52      HGR52
   21    26    51	5 ;     CG2RC0     CG2R52      HGR52
    8    27    29	5 ;     NG2R62     CG2R61     CG2R61
    8    27    52	5 ;     NG2R62     CG2R61      HGR62
   29    27    52	5 ;     CG2R61     CG2R61      HGR62
    9    28    53	5 ;     NG2R62     CG2R61      HGR62
    9    28    29	5 ;     NG2R62     CG2R61     CG2R61
   53    28    29	5 ;      HGR62     CG2R61     CG2R61
   27    29    28	5 ;     CG2R61     CG2R61     CG2R61
   27    29    54	5 ;     CG2R61     CG2R61      HGR61
   28    29    54	5 ;     CG2R61     CG2R61      HGR61

[ dihedrals ]
;	ai	  aj	ak	  al funct			  c0			c1			  c2			c3			  c4			c5
   25     1    24    19	 9 ;      CG321     OG3C61      CG321      CG321
   25     1    24    48	 9 ;      CG321     OG3C61      CG321       HGA2
   25     1    24    47	 9 ;      CG321     OG3C61      CG321       HGA2
   24     1    25    20	 9 ;      CG321     OG3C61      CG321      CG321
   24     1    25    49	 9 ;      CG321     OG3C61      CG321       HGA2
   24     1    25    50	 9 ;      CG321     OG3C61      CG321       HGA2
   13     3    12    10	 9 ;     CG3C52     NG3C51     CG3C52     CG3C51
   13     3    12    32	 9 ;     CG3C52     NG3C51     CG3C52       HGA2
   13     3    12    33	 9 ;     CG3C52     NG3C51     CG3C52       HGA2
   16     3    12    10	 9 ;      CG321     NG3C51     CG3C52     CG3C51
   16     3    12    32	 9 ;      CG321     NG3C51     CG3C52       HGA2
   16     3    12    33	 9 ;      CG321     NG3C51     CG3C52       HGA2
   12     3    13    11	 9 ;     CG3C52     NG3C51     CG3C52     CG3C51
   12     3    13    34	 9 ;     CG3C52     NG3C51     CG3C52       HGA2
   12     3    13    35	 9 ;     CG3C52     NG3C51     CG3C52       HGA2
   16     3    13    11	 9 ;      CG321     NG3C51     CG3C52     CG3C51
   16     3    13    34	 9 ;      CG321     NG3C51     CG3C52       HGA2
   16     3    13    35	 9 ;      CG321     NG3C51     CG3C52       HGA2
   12     3    16    23	 9 ;     CG3C52     NG3C51      CG321     CG2R64
   12     3    16    39	 9 ;     CG3C52     NG3C51      CG321       HGA2
   12     3    16    40	 9 ;     CG3C52     NG3C51      CG321       HGA2
   13     3    16    23	 9 ;     CG3C52     NG3C51      CG321     CG2R64
   13     3    16    39	 9 ;     CG3C52     NG3C51      CG321       HGA2
   13     3    16    40	 9 ;     CG3C52     NG3C51      CG321       HGA2
   17     4    18     6	 9 ;      CG311     NG2R51     CG2RC0     NG2R62
   17     4    18    21	 9 ;      CG311     NG2R51     CG2RC0     CG2RC0
    7     4    18     6	 9 ;     NG2R50     NG2R51     CG2RC0     NG2R62
    7     4    18    21	 9 ;     NG2R50     NG2R51     CG2RC0     CG2RC0
   18     4    17    19	 9 ;     CG2RC0     NG2R51      CG311      CG321
   18     4    17    41	 9 ;     CG2RC0     NG2R51      CG311       HGA1
   18     4    17    20	 9 ;     CG2RC0     NG2R51      CG311      CG321
    7     4    17    19	 9 ;     NG2R50     NG2R51      CG311      CG321
    7     4    17    41	 9 ;     NG2R50     NG2R51      CG311       HGA1
    7     4    17    20	 9 ;     NG2R50     NG2R51      CG311      CG321
   18     4     7    26	 9 ;     CG2RC0     NG2R51     NG2R50     CG2R52
   17     4     7    26	 9 ;      CG311     NG2R51     NG2R50     CG2R52
   42     5    14     6	 9 ;       HGP1     NG2R61     CG2R64     NG2R62
   42     5    14    10	 9 ;       HGP1     NG2R61     CG2R64     CG3C51
   22     5    14     6	 9 ;     CG2R63     NG2R61     CG2R64     NG2R62
   22     5    14    10	 9 ;     CG2R63     NG2R61     CG2R64     CG3C51
   42     5    22     2	 9 ;       HGP1     NG2R61     CG2R63      OG2D4
   42     5    22    21	 9 ;       HGP1     NG2R61     CG2R63     CG2RC0
   14     5    22     2	 9 ;     CG2R64     NG2R61     CG2R63      OG2D4
   14     5    22    21	 9 ;     CG2R64     NG2R61     CG2R63     CG2RC0
   18     6    14     5	 9 ;     CG2RC0     NG2R62     CG2R64     NG2R61
   18     6    14    10	 9 ;     CG2RC0     NG2R62     CG2R64     CG3C51
   14     6    18     4	 9 ;     CG2R64     NG2R62     CG2RC0     NG2R51
   14     6    18    21	 9 ;     CG2R64     NG2R62     CG2RC0     CG2RC0
    4     7    26    21	 9 ;     NG2R51     NG2R50     CG2R52     CG2RC0
    4     7    26    51	 9 ;     NG2R51     NG2R50     CG2R52      HGR52
   23     8    27    29	 9 ;     CG2R64     NG2R62     CG2R61     CG2R61
   23     8    27    52	 9 ;     CG2R64     NG2R62     CG2R61      HGR62
   27     8    23     9	 9 ;     CG2R61     NG2R62     CG2R64     NG2R62
   27     8    23    16	 9 ;     CG2R61     NG2R62     CG2R64      CG321
   23     9    28    53	 9 ;     CG2R64     NG2R62     CG2R61      HGR62
   23     9    28    29	 9 ;     CG2R64     NG2R62     CG2R61     CG2R61
   28     9    23     8	 9 ;     CG2R61     NG2R62     CG2R64     NG2R62
   28     9    23    16	 9 ;     CG2R61     NG2R62     CG2R64      CG321
   30    10    12     3	 9 ;       HGA1     CG3C51     CG3C52     NG3C51
   30    10    12    32	 9 ;       HGA1     CG3C51     CG3C52       HGA2
   30    10    12    33	 9 ;       HGA1     CG3C51     CG3C52       HGA2
   11    10    12     3	 9 ;     CG3C51     CG3C51     CG3C52     NG3C51
   11    10    12    32	 9 ;     CG3C51     CG3C51     CG3C52       HGA2
   11    10    12    33	 9 ;     CG3C51     CG3C51     CG3C52       HGA2
   14    10    12     3	 9 ;     CG2R64     CG3C51     CG3C52     NG3C51
   14    10    12    32	 9 ;     CG2R64     CG3C51     CG3C52       HGA2
   14    10    12    33	 9 ;     CG2R64     CG3C51     CG3C52       HGA2
   30    10    11    15	 9 ;       HGA1     CG3C51     CG3C51      CG331
   30    10    11    13	 9 ;       HGA1     CG3C51     CG3C51     CG3C52
   30    10    11    31	 9 ;       HGA1     CG3C51     CG3C51       HGA1
   12    10    11    15	 9 ;     CG3C52     CG3C51     CG3C51      CG331
   12    10    11    13	 9 ;     CG3C52     CG3C51     CG3C51     CG3C52
   12    10    11    31	 9 ;     CG3C52     CG3C51     CG3C51       HGA1
   14    10    11    15	 9 ;     CG2R64     CG3C51     CG3C51      CG331
   14    10    11    13	 9 ;     CG2R64     CG3C51     CG3C51     CG3C52
   14    10    11    31	 9 ;     CG2R64     CG3C51     CG3C51       HGA1
   30    10    14     5	 9 ;       HGA1     CG3C51     CG2R64     NG2R61
   30    10    14     6	 9 ;       HGA1     CG3C51     CG2R64     NG2R62
   12    10    14     5	 9 ;     CG3C52     CG3C51     CG2R64     NG2R61
   12    10    14     6	 9 ;     CG3C52     CG3C51     CG2R64     NG2R62
   11    10    14     5	 9 ;     CG3C51     CG3C51     CG2R64     NG2R61
   11    10    14     6	 9 ;     CG3C51     CG3C51     CG2R64     NG2R62
   10    11    15    36	 9 ;     CG3C51     CG3C51      CG331       HGA3
   10    11    15    37	 9 ;     CG3C51     CG3C51      CG331       HGA3
   10    11    15    38	 9 ;     CG3C51     CG3C51      CG331       HGA3
   13    11    15    36	 9 ;     CG3C52     CG3C51      CG331       HGA3
   13    11    15    37	 9 ;     CG3C52     CG3C51      CG331       HGA3
   13    11    15    38	 9 ;     CG3C52     CG3C51      CG331       HGA3
   31    11    15    36	 9 ;       HGA1     CG3C51      CG331       HGA3
   31    11    15    37	 9 ;       HGA1     CG3C51      CG331       HGA3
   31    11    15    38	 9 ;       HGA1     CG3C51      CG331       HGA3
   10    11    13     3	 9 ;     CG3C51     CG3C51     CG3C52     NG3C51
   10    11    13    34	 9 ;     CG3C51     CG3C51     CG3C52       HGA2
   10    11    13    35	 9 ;     CG3C51     CG3C51     CG3C52       HGA2
   15    11    13     3	 9 ;      CG331     CG3C51     CG3C52     NG3C51
   15    11    13    34	 9 ;      CG331     CG3C51     CG3C52       HGA2
   15    11    13    35	 9 ;      CG331     CG3C51     CG3C52       HGA2
   31    11    13     3	 9 ;       HGA1     CG3C51     CG3C52     NG3C51
   31    11    13    34	 9 ;       HGA1     CG3C51     CG3C52       HGA2
   31    11    13    35	 9 ;       HGA1     CG3C51     CG3C52       HGA2
    3    16    23     8	 9 ;     NG3C51      CG321     CG2R64     NG2R62
    3    16    23     9	 9 ;     NG3C51      CG321     CG2R64     NG2R62
   39    16    23     8	 9 ;       HGA2      CG321     CG2R64     NG2R62
   39    16    23     9	 9 ;       HGA2      CG321     CG2R64     NG2R62
   40    16    23     8	 9 ;       HGA2      CG321     CG2R64     NG2R62
   40    16    23     9	 9 ;       HGA2      CG321     CG2R64     NG2R62
    4    17    19    43	 9 ;     NG2R51      CG311      CG321       HGA2
    4    17    19    44	 9 ;     NG2R51      CG311      CG321       HGA2
    4    17    19    24	 9 ;     NG2R51      CG311      CG321      CG321
   41    17    19    43	 9 ;       HGA1      CG311      CG321       HGA2
   41    17    19    44	 9 ;       HGA1      CG311      CG321       HGA2
   41    17    19    24	 9 ;       HGA1      CG311      CG321      CG321
   20    17    19    43	 9 ;      CG321      CG311      CG321       HGA2
   20    17    19    44	 9 ;      CG321      CG311      CG321       HGA2
   20    17    19    24	 9 ;      CG321      CG311      CG321      CG321
    4    17    20    46	 9 ;     NG2R51      CG311      CG321       HGA2
    4    17    20    45	 9 ;     NG2R51      CG311      CG321       HGA2
    4    17    20    25	 9 ;     NG2R51      CG311      CG321      CG321
   19    17    20    46	 9 ;      CG321      CG311      CG321       HGA2
   19    17    20    45	 9 ;      CG321      CG311      CG321       HGA2
   19    17    20    25	 9 ;      CG321      CG311      CG321      CG321
   41    17    20    46	 9 ;       HGA1      CG311      CG321       HGA2
   41    17    20    45	 9 ;       HGA1      CG311      CG321       HGA2
   41    17    20    25	 9 ;       HGA1      CG311      CG321      CG321
    4    18    21    22	 9 ;     NG2R51     CG2RC0     CG2RC0     CG2R63
    4    18    21    26	 9 ;     NG2R51     CG2RC0     CG2RC0     CG2R52
    6    18    21    22	 9 ;     NG2R62     CG2RC0     CG2RC0     CG2R63
    6    18    21    26	 9 ;     NG2R62     CG2RC0     CG2RC0     CG2R52
   17    19    24     1	 9 ;      CG311      CG321      CG321     OG3C61
   17    19    24    48	 9 ;      CG311      CG321      CG321       HGA2
   17    19    24    47	 9 ;      CG311      CG321      CG321       HGA2
   43    19    24     1	 9 ;       HGA2      CG321      CG321     OG3C61
   43    19    24    48	 9 ;       HGA2      CG321      CG321       HGA2
   43    19    24    47	 9 ;       HGA2      CG321      CG321       HGA2
   44    19    24     1	 9 ;       HGA2      CG321      CG321     OG3C61
   44    19    24    48	 9 ;       HGA2      CG321      CG321       HGA2
   44    19    24    47	 9 ;       HGA2      CG321      CG321       HGA2
   17    20    25     1	 9 ;      CG311      CG321      CG321     OG3C61
   17    20    25    49	 9 ;      CG311      CG321      CG321       HGA2
   17    20    25    50	 9 ;      CG311      CG321      CG321       HGA2
   46    20    25     1	 9 ;       HGA2      CG321      CG321     OG3C61
   46    20    25    49	 9 ;       HGA2      CG321      CG321       HGA2
   46    20    25    50	 9 ;       HGA2      CG321      CG321       HGA2
   45    20    25     1	 9 ;       HGA2      CG321      CG321     OG3C61
   45    20    25    49	 9 ;       HGA2      CG321      CG321       HGA2
   45    20    25    50	 9 ;       HGA2      CG321      CG321       HGA2
   18    21    22     2	 9 ;     CG2RC0     CG2RC0     CG2R63      OG2D4
   18    21    22     5	 9 ;     CG2RC0     CG2RC0     CG2R63     NG2R61
   26    21    22     2	 9 ;     CG2R52     CG2RC0     CG2R63      OG2D4
   26    21    22     5	 9 ;     CG2R52     CG2RC0     CG2R63     NG2R61
   18    21    26     7	 9 ;     CG2RC0     CG2RC0     CG2R52     NG2R50
   18    21    26    51	 9 ;     CG2RC0     CG2RC0     CG2R52      HGR52
   22    21    26     7	 9 ;     CG2R63     CG2RC0     CG2R52     NG2R50
   22    21    26    51	 9 ;     CG2R63     CG2RC0     CG2R52      HGR52
    8    27    29    28	 9 ;     NG2R62     CG2R61     CG2R61     CG2R61
    8    27    29    54	 9 ;     NG2R62     CG2R61     CG2R61      HGR61
   52    27    29    28	 9 ;      HGR62     CG2R61     CG2R61     CG2R61
   52    27    29    54	 9 ;      HGR62     CG2R61     CG2R61      HGR61
    9    28    29    27	 9 ;     NG2R62     CG2R61     CG2R61     CG2R61
    9    28    29    54	 9 ;     NG2R62     CG2R61     CG2R61      HGR61
   53    28    29    27	 9 ;      HGR62     CG2R61     CG2R61     CG2R61
   53    28    29    54	 9 ;      HGR62     CG2R61     CG2R61      HGR61

[ dihedrals ]
;	ai	  aj	ak	  al funct			  c0			c1			  c2			c3
   22    21     5     2	 2

